 --invoking executable--
/home/nike/cfour_v2.00beta/bin/xjoda


   *************************************************************************
         <<<     CCCCCC     CCCCCC   |||     CCCCCC     CCCCCC   >>>
       <<<      CCC        CCC       |||    CCC        CCC         >>>
      <<<      CCC        CCC        |||   CCC        CCC            >>>
    <<<        CCC        CCC        |||   CCC        CCC              >>>
      <<<      CCC        CCC        |||   CCC        CCC            >>>
       <<<      CCC        CCC       |||    CCC        CCC         >>>
         <<<     CCCCCC     CCCCCC   |||     CCCCCC     CCCCCC   >>>
   *************************************************************************

     ****************************************************************
     * CFOUR Coupled-Cluster techniques for Computational Chemistry *
     ****************************************************************
 

   Department of Chemistry                Institut fuer Physikalische Chemie
   University of Texas at Austin          Universitaet Mainz
   Austin, TX  78712, USA                 D-55099 Mainz, Germany
 
                       Version 2.00beta
 
                     wob132                                            
                     Wed Apr  4 01:30:44 EDT 2018                      
                     integer*8 version is running
 
********************************************************************************
*                          Input from ZMAT file                                *
********************************************************************************
TITLE                                                                           
Si                                                                              
                                                                                
*ACES2(CALC=CCSD                                                                
PRINT=24                                                                        
JODA_PRINT=24                                                                   
INPUT_MRCC=OFF                                                                  
#CC_PROG=MRCC                                                                   
DROPMO=1>5                                                                      
CONTRACTION=GENERAL                                                             
RELATIVISTIC=OFF                                                                
EXCITE=EOMEE                                                                    
ESTATE_CONV=5                                                                   
ESTATE_SYM=2/2/2/2/2/2/2/2                                                      
XFORM_TOL=18                                                                    
SAVE_INTS=ON                                                                    
SCF_EXPORDER=6                                                                  
SCF_EXPSTART=5                                                                  
#SCF_DAMPING=1000                                                               
SCF_EXTRAPOLATION=ON                                                            
SCF_CONV=12                                                                     
SCF_MAXCYC=9999                                                                 
CC_CONV=10                                                                      
CC_MAXCYC=999                                                                   
T3_EXTRAPOL=ON                                                                  
REFERENCE=ROHF                                                                  
CHARGE=+0                                                                       
MULT=3                                                                          
ABCDTYPE=STANDARD                                                               
OCCUPATION=3-2-2-0-1-0-0-0/3-1-1-0-1-0-0-0                                      
MEM=32                                                                          
MEM_UNIT=GB                                                                     
BASIS=SPECIAL)                                                                  
                                                                                
SI:aV(D+d)Z-MOLP                                                                
                                                                                
********************************************************************************
  @GTFLGS-W, Keyword #CC_PROG not known and is ignored.
  @GTFLGS-W, Keyword #SCF_DAMPING not known and is ignored.
    -------------------------------------------------------------------
                    CFOUR Control Parameters 
    -------------------------------------------------------------------
        External           Internal           Value            Units
          Name               Name
    -------------------------------------------------------------------
       ABCDTYPE             IABCDT         STANDARD     [  0]   ***   
       ANHARMONIC           IANHAR         OFF          [  0]   ***   
       ANH_ALGORIT          IANALG         STANDARD     [  0]   ***   
       ANH_DERIVAT          IANDER         SECOND       [  1]   ***   
       ANH_STEPSIZ          ICUBST             50000          x 10-6  
       ANH_SYMMETR          IANHSM         ABELIAN      [  0]   ***   
       AO_LADDERS           IAOLAD         SINGLEPASS   [  1]   ***   
       BASIS                IBASIS         SPECIAL      [  0]   ***   
       BREIT                IBREIT         OFF          [  0]   ***   
       BRUCK_CONV           IBRTOL          10D-  4             ***   
       BRUECKNER            IBRKNR             OFF      [  0]   ***   
       BUFFERSIZE           IBUFFS            600               ***   
       CACHE_RECS           ICHREC             10               ***   
       CALCLEVEL            ICLLVL           CCSD       [ 10]   ***   
       CCORBOPT             ICCORB             OFF      [  0] x 0.01  
       CC_CONV              ICCCNV          10D- 10             ***   
       CC_EXPORDER          ICCEOR              5               ***   
       CC_EXTRAPOL          ICCEXT             DIIS     [  1]   ***   
       CC_MAXCYC            ICCCYC            999              cycles 
       CC_PROGRAM           ICCPRO         VCC          [  0]   ***   
       CHARGE               ICHRGE              0               ***   
       CHOLESKY             ICHOLE         OFF          [  0]   ***   
       CIS_CONV             ICISTL              5               ***   
       COMM_SIZE            IPSIZE            ***               ***   
       CONSTANT             ICONST         OLD          [  1]   ***   
       CONTINUUM            ICONTU         NONE         [  0]   ***   
       CONTRACTION          ICNTYP          GENERAL     [  1]   ***   
       COORDINATES          ICOORD         INTERNAL     [  0]   ***   
       CPHF_CONVER          ICPHFT          10D- 16             ***   
       CPHF_MAXCYC          ICPHFC             64              cycles 
       CUBIC                ICUBIC         OFF          [  0]   ***   
       CURVILINEAR          ICURVY            OFF       [  0]   ***   
       DBOC                 IDBOC          OFF          [  0]   ***   
       DCT                  IDCT           OFF          [  0]   ***   
       DERIV_LEV            IDRLVL            ZERO      [  0]   ***   
       DIAG_MRCC            IEOMST          10D-  0             ***   
       DIFF_TYPE            IDIFTY         RELAXED      [  0]   ***   
       DIRECT               IDIRCT         OFF          [  0]   ***   
       DROPMO               IDRPMO A   1,  2,  3,  4,  5,
                                   B   1,  2,  3,  4,  5,
       ECP                  IECP           OFF          [  0]   ***   
       EIGENVECTOR          IVEC                1               ***   
       EL_ANHARM            IELANH         OFF          [  0]   ***   
       EOMFOLLOW            IEOMSR         ENERGY       [  0]   ***   
       EOM_MRCC             IMRCCE         NEW          [  1]   ***   
       EOM_NONIT            EOMNON         OFF          [  0]   ***   
       EOM_NSING            IEOMSI          10D-  0             ***   
       EOM_NSTATES          IMRCCD         DAVIDSON     [  0]   ***   
       EOM_NTRIP            IEOMTR          10D-  0             ***   
       EOM_ORDER            IEXORD         ENERGY       [  0]   ***   
       ESTATE_CONV          IEXTOL          10D-  5             ***   
       ESTATE_DIAG          IEXDIG         ITERATIVE    [  0]   ***   
       ESTATE_LOCK          IESLOC         ON           [  1]   ***   
       ESTATE_MAXC          IEXMXC             20               ***   
       ESTATE_PROP          IEXPRP         OFF          [  0]   ***   
       ESTATE_SYM           IEXSYM   2,  2,  2,  2,  2,  2,  2,  2,
       EVAL_HESS            IRECAL              0            # of cyc.
       EXCITATION           IEXCIT              0               ***   
       EXCITE               IEXCIT         EOMEE        [  3]   ***   
       FCGRADNEW            IFCGNW         OFF          [  0]   ***   
       FC_FIELD             IFINFC              0             x 10-6  
       FD_CALTYPE           IFDCAL         GRADONLY     [  0]   ***   
       FD_PROJECT           IFDPRJ         OFF          [  1]   ***   
       FD_STEPSIZE          IDISFD              0            10-4 bohr
       FD_USEGROUP          IFDGRP         FULL         [  0]   ***   
       FILE_RECSIZ          IFLREC              4096           words  
       FINITE_PERT          IFIPER              0             x 10-6  
       FIXGEOM              IFIXGM         OFF          [  0]   ***   
       FOCK                 IFOCK          AO           [  1]   ***   
       FREQ_ALGORI          IVIALG         STANDARD     [  0]   ***   
       FROZEN_CORE          IFROCO         OFF          [  0]   ***   
       FROZEN_VIRT          IFROVI         OFF          [  0]   ***   
       GAMMA_ABCD           IGABCD         STORE        [  0]   ***   
       GAMMA_ABCI           IGABCI         STORE        [  0]   ***   
       GENBAS_1             IGNBS1              0               ***   
       GENBAS_2             IGNBS2              0               ***   
       GENBAS_3             IGNBS3              0               ***   
       GENBAS_4             IGNBS4              0               ***   
       GEO_CONV             ICONTL              5              H/bohr 
       GEO_MAXCYC           IOPTCY             50               ***   
       GEO_MAXSTEP          IMXSTP            300            millibohr
       GEO_METHOD           INR            SINGLE_POINT [  5]   ***   
       GIAO                 IGIAO          OFF          [  1]   ***   
       GIMIC                IGIMIC         OFF          [  0]   ***   
       GRID                 IGRID          OFF          [  0]   ***   
       GRID_ALGO            IGALGO         SERIAL       [  0]   ***   
       GUESS                IGUESS            MOREAD    [  0]   ***   
       HBAR                 IHBAR               ON      [  1]   ***   
       HESS_TYPE            IHESTP         SCF          [  0]   ***   
       HF2_FILE             IHF2Fl         USE          [  1]   ***   
       HFSTABILITY          ISTABL         OFF          [  0]   ***   
       INCORE               INCORE             OFF      [  0]   ***   
       INPUT_MRCC           IMRCC          OFF          [  0]   ***   
       INTEGRALS            INTTYP             VMOL     [  1]   ***   
       JODA_PRINT           IJPRNT             24               ***   
       LINDEP_TOL           ILINDP              8               ***   
       LINEQ_CONV           IZTACN          10D-  7           cycles  
       LINEQ_EXPOR          ILMAXD              5               ***   
       LINEQ_MAXCY          ILMAXC             50               ***   
       LINEQ_TYPE           ILTYPE         DIIS         [  1]   ***   
       LOCK_ORBOCC          ILOCOC             OFF      [  0]   ***   
       MEMORY_SIZE          IMEMSZ         *********           words  
       MEM_UNIT             IMEMU          GB           [  3]   ***   
       MRCC                 IMRCCC         OFF          [  0]   ***   
       MULTIPLICTY          IMULTP              3               ***   
       NEGEVAL              IDIE             ABORT      [  0]   ***   
       NEWNORM              INEWNO         OFF          [  0]   ***   
       NON-HF               INONHF              ON      [  1]   ***   
       NTOP_TAMP            ITOPT2             15               ***   
       NUC_MODEL            INUCMO         POINT        [  0]   ***   
       OCCUPATION           IOCCU  A   3,  2,  2,  0,  1,  0,  0,  0,
                                   B   3,  1,  1,  0,  1,  0,  0,  0,
       OPEN-SHELL           IOPEN          SPIN-ORBITAL [  0]   ***   
       ORBITALS             IORBTP         SEMICANONICAL[  1]   ***   
       PARALLEL             IPARAL         ON           [  1]   ***   
       PARA_INT             IPINTS         ON           [  1]   ***   
       PARA_PRINT           IPPRIN              0               ***   
       PERT_ORB             IPTORB         STANDARD     [  0]   ***   
       POINTS               IGRDFD              0               ***   
       PRINT                IPRNT              24               ***   
       PROPS                IPROPS             OFF      [  0]   ***   
       PROP_INTEGR          IINTYP         INTERNAL     [  0]   ***   
       PSI                  IPSI           OFF          [  0]   ***   
       QUARTIC              IQUART         OFF          [  0]   ***   
       RAMAN_INT            IRAMIN         OFF          [  0]   ***   
       RAMAN_ORB            IRAMRE         UNRELAXED    [  0]   ***   
       RDO                  IRDOFM             OFF      [  0]   ***   
       REFERENCE            IREFNC             ROHF     [  2]   ***   
       RELATIVIST           IRELAT         OFF          [  0]   ***   
       RELAX_DENS           IRDENS             OFF      [  0]   ***   
       RESET_FLAGS          IRESET             OFF      [  0]   ***   
       RESTART_CC           ICCRES         OFF          [  0]   ***   
       ROT_EVEC             ROTVEC              0               ***   
       SAVE_INTS            ISVINT              ON      [  1]   ***   
       SCALE_ON             ISTCRT              0               ***   
       SCF_CONV             ISCFCV          10D- 12             ***   
       SCF_DAMPING          IDAMP               0             x 10-3  
       SCF_EXPORDE          IRPPOR              6               ***   
       SCF_EXPSTAR          IRPPLS              5               ***   
       SCF_EXTRAPO          IRPP                ON      [  1]   ***   
       SCF_MAXCYC           ISCFCY            ***              cycles 
       SCF_NOSTOP           ISCFST         OFF          [  0]   ***   
       SCF_PRINT            ISCFPR              0               ***   
       SD_FIELD             IFINSD              0             x 10-6  
       SEQUENCE             ISEQUE         OFF          [  0]   ***   
       SOPERT               IPERSO         OFF          [  0]   ***   
       SPHERICAL            IDFGHI             ON       [  1]   ***   
       SPINORBIT            ISOCAL         OFF          [  0]   ***   
       SPINROTATIO          ISRCON         OFF          [  0]   ***   
       SPIN_FLIP            ISPFLP         OFF          [  0]   ***   
       SPIN_ORBIT           ISPORB         OFF          [  0]   ***   
       SPIN_SCAL            ISCSMP         OFF          [  0]   ***   
       SUBGROUP             ISUBGP         DEFAULT      [  0]   ***   
       SUBGRPAXIS           ISBXYZ         X            [  0]   ***   
       SYMMETRY             ISYM             ON         [  0]   ***   
       SYM_CHECK            ISYMCK         OVERRIDE     [  1]   ***   
       T3_EXTRAPOL          IT3EXT         ON           [  1]   ***   
       TAMP_SUM             IEVERY              5               ***   
       TESTSUITE            ITESTS         OFF          [  0]   ***   
       THERMOCH             ITHERM         OFF          [  0]   ***   
       TOL_CHOLESK          ITOLCH          10D-  4             ***   
       TRANGRAD             IRESRM         OFF          [  0]   ***   
       TRANS_INV            ITRAIN         USE          [  0]   ***   
       TREAT_PERT           ITREAT         SIMULTANEOUS [  0]   ***   
       UIJ_THRESHO          IUIJTH              1               ***   
       UNITS                IUNITS         ANGSTROM     [  0]   ***   
       UNOS                 IUNOS          OFF          [  0]   ***   
       UPDATE_HESS          IHUPDT         ON           [  1]   ***   
       VIBPHASE             ISETPH         STANDARD     [  0]   ***   
       VIBRATION            IVIB              NO        [  0]   ***   
       VIB_ALGORIT          IGEALG         STANDARD     [  0]   ***   
       VNATORB              IVNORB         OFF          [  0]   ***   
       VTRAN                IVTRAN         FULL/PARTIAL [  0]   ***   
       XFIELD               IXEFLD              0             x 10-6  
       XFORM_TOL            IXFTOL          10D- 18             ***   
       YFIELD               IYEFLD              0             x 10-6  
       ZFIELD               IZEFLD              0             x 10-6  
    -------------------------------------------------------------------
   1 entries found in Z-matrix 
   Job Title : TITLE                                                                           
PERTABLE: Mass and at. nr. lookup
Line Symbol AtNr   At. Mass
  1  SI        14    27.97693
  @GEOPT-I, Words available:       139 Words Used  22842200.
 GMETRY starting with R
  1     0.000000
  2     0.000000
  3     0.000000
 GMETRY: Converting to radians & bohr.  1.745329251994330E-002
  0.529177100000000     
 GMETRY using R vector
  1     0.000000
  2     0.000000
  3     0.000000
 Molecule is linear.
  @GMETRY-I, Cartesian coordinates from Z-matrix:
      1     0.000000     0.000000     0.000000
   27.9769271000
 After translation to center of mass coordinates 
        0.000000000000    0.000000000000    0.000000000000
  Inertia tensor (amu*bohr**2)
    0.00000    0.00000    0.00000
    0.00000    0.00000    0.00000
    0.00000    0.00000    0.00000
    Inertia tensor:
        0.000000000000    0.000000000000    0.000000000000
        0.000000000000    0.000000000000    0.000000000000
        0.000000000000    0.000000000000    0.000000000000
    Principal axis orientation for molecular system: 
        0.000000000000    0.000000000000    0.000000000000
    Diagonalized inertia tensor:
        0.000000000000    0.000000000000    0.000000000000
        0.000000000000    0.000000000000    0.000000000000
        0.000000000000    0.000000000000    0.000000000000
    Eigenvectors of inertia tensor: 
        0.000000000000    0.000000000000   -1.000000000000
        0.000000000000    1.000000000000    0.000000000000
        1.000000000000    0.000000000000    0.000000000000
 factor:   60.1997200000000     
   Rotational constants (in cm-1): 

   Rotational constants (in MHz): 

  @SYMMETRY-I, Handedness of inertial frame: 1.00000
  @SYMMETRY-I, The symmetry group is 3-fold degenerate.
  @SYMMETRY-I, The molecule belongs to a cubic point group.
   Principal axis orientation for molecule:
        0.000000000000    0.000000000000    0.000000000000
   Reflection in plane  3 is a valid symmetry operation.
       -1.000000000000    0.000000000000    0.000000000000
        0.000000000000   -1.000000000000    0.000000000000
        0.000000000000    0.000000000000    1.000000000000
   Rotation about  3 is a valid symmetry operation 
   Reflection in plane  2 is a valid symmetry operation.
       -1.000000000000    0.000000000000    0.000000000000
        0.000000000000    1.000000000000    0.000000000000
        0.000000000000    0.000000000000   -1.000000000000
   Rotation about  2 is a valid symmetry operation 
   Reflection in plane  1 is a valid symmetry operation.
        1.000000000000    0.000000000000    0.000000000000
        0.000000000000   -1.000000000000    0.000000000000
        0.000000000000    0.000000000000   -1.000000000000
   Rotation about  1 is a valid symmetry operation 
   The molecule possesses an inversion center. 
  Symmetry bits:    7   7   1
********************************************************************************
   The full molecular point group is I h .
   The largest Abelian subgroup of the full molecular point group is D2h .
   The computational point group is D2h .
********************************************************************************
  @CHRTAB-I, Generated transformation matrices for 120 symmetry operations.
  @TSTOPS-I, 120 operations verified.
  @SYMUNQ-I, There are   1 orbits in the I h  point group.
------------------------------------------------------------------------
    Set    Site Group                       Members of set
------------------------------------------------------------------------
      1      I h               1
------------------------------------------------------------------------
  @CHRTAB-I, Generated transformation matrices for   8 symmetry operations.
  @TSTOPS-I,   8 operations verified.
  @SYMUNQ-I, There are   1 orbits in the D2h  point group.
------------------------------------------------------------------------
    Set    Site Group                       Members of set
------------------------------------------------------------------------
      1      D2h               1
------------------------------------------------------------------------
  @CHRTAB-I, Generated transformation matrices for   8 symmetry operations.
  @TSTOPS-I,   8 operations verified.
  @SYMUNQ-I, There are   1 orbits in the D2h  point group.
------------------------------------------------------------------------
    Set    Site Group                       Members of set
------------------------------------------------------------------------
      1      D2h               1
------------------------------------------------------------------------
  @GTFLGS-W, Keyword #CC_PROG not known and is ignored.
  @GTFLGS-W, Keyword #SCF_DAMPING not known and is ignored.
  There are   32 basis functions.
 @GEOPT-W, Archive file not created for single-point calculation.
  @CHECKOUT-I, Total execution time (CPU/WALL):        0.26/       0.75 seconds.
--executable xjoda finished with status     0 in        0.78 seconds (walltime).
 --invoking executable--
/home/nike/cfour_v2.00beta/bin/xvmol
 Serial version of molecule started
********************************************************************************
                    Input from MOL file
********************************************************************************
INTGRL        1    0    1    0    0    0    0    0    0                         
         *** CFOUR Program System (Release V0.1) ***                            
TITLE                                                                           
    1    3 X  Y   Z   0.10E-08              0    0                              
   9999.00      3.00                                                            
         14.00000000    1    3    1    1    1                                   
SI#1   0.000000000000000   0.000000000000000   0.000000000000000                
   13    5                                                                      
   78860.0000000000       2.704430000000000E-004 -7.231770000000000E-005        
  1.851130000000000E-005  0.000000000000000E+000  0.000000000000000E+000        
   11820.0000000000       2.097170000000000E-003 -5.551160000000000E-004        
  1.422360000000000E-004  0.000000000000000E+000  0.000000000000000E+000        
   2692.00000000000       1.085060000000000E-002 -2.938050000000000E-003        
  7.521850000000000E-004  0.000000000000000E+000  0.000000000000000E+000        
   763.400000000000       4.367540000000000E-002 -1.176870000000000E-002        
  3.022790000000000E-003  0.000000000000000E+000  0.000000000000000E+000        
   249.600000000000       0.137653000000000      -4.029070000000000E-002        
  1.036770000000000E-002  0.000000000000000E+000  0.000000000000000E+000        
   90.2800000000000       0.316644000000000      -0.100609000000000             
  2.625630000000000E-002  0.000000000000000E+000  0.000000000000000E+000        
   35.2900000000000       0.418581000000000      -0.196528000000000             
  5.239890000000000E-002  0.000000000000000E+000  0.000000000000000E+000        
   14.5100000000000       0.210212000000000      -0.102382000000000             
  2.909590000000000E-002  0.000000000000000E+000  0.000000000000000E+000        
   4.05300000000000       1.449520000000000E-002  0.527190000000000             
 -0.178003000000000       0.000000000000000E+000  0.000000000000000E+000        
   1.48200000000000      -2.035900000000000E-003  0.593251000000000             
 -0.346874000000000       0.000000000000000E+000  0.000000000000000E+000        
  0.251700000000000       6.241860000000000E-004  3.326520000000000E-002        
  0.623020000000000       0.000000000000000E+000  0.000000000000000E+000        
  9.243000000000000E-002  0.000000000000000E+000  0.000000000000000E+000        
  0.000000000000000E+000   1.00000000000000       0.000000000000000E+000        
  3.320000000000000E-002  0.000000000000000E+000  0.000000000000000E+000        
  0.000000000000000E+000  0.000000000000000E+000   1.00000000000000             
    9    4                                                                      
   315.900000000000       3.926560000000000E-003 -8.583020000000000E-004        
  0.000000000000000E+000  0.000000000000000E+000                                
   74.4200000000000       2.988110000000000E-002 -6.303280000000000E-003        
  0.000000000000000E+000  0.000000000000000E+000                                
   23.4800000000000       0.127212000000000      -2.882550000000000E-002        
  0.000000000000000E+000  0.000000000000000E+000                                
   8.48800000000000       0.320943000000000      -6.945600000000000E-002        
  0.000000000000000E+000  0.000000000000000E+000                                
   3.21700000000000       0.455429000000000      -0.119493000000000             
  0.000000000000000E+000  0.000000000000000E+000                                
   1.22900000000000       0.268563000000000      -1.995810000000000E-002        
  0.000000000000000E+000  0.000000000000000E+000                                
  0.296400000000000       1.883360000000000E-002  0.510268000000000             
  0.000000000000000E+000  0.000000000000000E+000                                
  8.767999999999999E-002  0.000000000000000E+000  0.000000000000000E+000        
   1.00000000000000       0.000000000000000E+000                                
  2.500000000000000E-002  0.000000000000000E+000  0.000000000000000E+000        
  0.000000000000000E+000   1.00000000000000                                     
    3    3                                                                      
   1.80300000000000        1.00000000000000       0.000000000000000E+000        
  0.000000000000000E+000                                                        
  0.275000000000000       0.000000000000000E+000   1.00000000000000             
  0.000000000000000E+000                                                        
  8.400000000000001E-002  0.000000000000000E+000  0.000000000000000E+000        
   1.00000000000000                                                             
FINISH                                                                          
 
********************************************************************************
 One- and two-electron integrals over symmetry-adapted AOs are calculated.

  Spherical harmonics are used.
  
   1 types of atoms
   3 symmetry operations

   Reflection in the YZ-plane
   Reflection in the XZ-plane
   Reflection in the XY-plane
  
  Integrals less than  0.10E-13 are neglected.

  Atomic type number  1 :
  -----------------------

    Nuclear charge:                       14
    number of symmetry independent atoms:  1
    highest orbital type:                  d

      1 groups of CGTOs of s type
      1 groups of CGTOs of p type
      1 groups of CGTOs of d type

    nuclear coordinates (in a.u.) are :

    SI#1        0.000000000000000        0.000000000000000        0.000000000000000
  
   Basis function not normalized: 
   Center (as ordered in MOL file):   1
   Angular Momentum type          : s
   Offset within angular momentum :  2
   <chi|chi>                      :    0.9972474253
   Basis function not normalized: 
   Center (as ordered in MOL file):   1
   Angular Momentum type          : s
   Offset within angular momentum :  3
   <chi|chi>                      :    1.8310121118
   Basis function not normalized: 
   Center (as ordered in MOL file):   1
   Angular Momentum type          : p
   Offset within angular momentum :  2
   <chi|chi>                      :    1.9677537273
   Internuclear distances (A) :

     for atom SI#1 (coordinates :   0.00000   0.00000   0.00000)


   Group multiplication table :

         1   2   3   4   5   6   7   8
         2   1   4   3   6   5   8   7
         3   4   1   2   7   8   5   6
         4   3   2   1   8   7   6   5
         5   6   7   8   1   2   3   4
         6   5   8   7   2   1   4   3
         7   8   5   6   3   4   1   2
         8   7   6   5   4   3   2   1

   Gaussian basis information :

   atom                 exponent      coefficients

 SI#1  1    S   
+                 1   78860.000000   0.0002704  -0.0000723   0.0000185   0.0000000   0.0000000
                  2   11820.000000   0.0020972  -0.0005551   0.0001422   0.0000000   0.0000000
                  3    2692.000000   0.0108506  -0.0029381   0.0007522   0.0000000   0.0000000
                  4     763.400000   0.0436754  -0.0117687   0.0030228   0.0000000   0.0000000
                  5     249.600000   0.1376530  -0.0402907   0.0103677   0.0000000   0.0000000
                  6      90.280000   0.3166440  -0.1006090   0.0262563   0.0000000   0.0000000
                  7      35.290000   0.4185810  -0.1965280   0.0523989   0.0000000   0.0000000
                  8      14.510000   0.2102120  -0.1023820   0.0290959   0.0000000   0.0000000
                  9       4.053000   0.0144952   0.5271900  -0.1780030   0.0000000   0.0000000
                 10       1.482000  -0.0020359   0.5932510  -0.3468740   0.0000000   0.0000000
                 11       0.251700   0.0006242   0.0332652   0.6230200   0.0000000   0.0000000
                 12       0.092430   0.0000000   0.0000000   0.0000000   1.0000000   0.0000000
                 13       0.033200   0.0000000   0.0000000   0.0000000   0.0000000   1.0000000

 SI#1  1    X   
+                14     315.900000   0.0039266  -0.0008583   0.0000000   0.0000000
                 15      74.420000   0.0298811  -0.0063033   0.0000000   0.0000000
                 16      23.480000   0.1272120  -0.0288255   0.0000000   0.0000000
                 17       8.488000   0.3209430  -0.0694560   0.0000000   0.0000000
                 18       3.217000   0.4554290  -0.1194930   0.0000000   0.0000000
                 19       1.229000   0.2685630  -0.0199581   0.0000000   0.0000000
                 20       0.296400   0.0188336   0.5102680   0.0000000   0.0000000
                 21       0.087680   0.0000000   0.0000000   1.0000000   0.0000000
                 22       0.025000   0.0000000   0.0000000   0.0000000   1.0000000

 SI#1  1    Y   
+                23     315.900000   0.0039266  -0.0008583   0.0000000   0.0000000
                 24      74.420000   0.0298811  -0.0063033   0.0000000   0.0000000
                 25      23.480000   0.1272120  -0.0288255   0.0000000   0.0000000
                 26       8.488000   0.3209430  -0.0694560   0.0000000   0.0000000
                 27       3.217000   0.4554290  -0.1194930   0.0000000   0.0000000
                 28       1.229000   0.2685630  -0.0199581   0.0000000   0.0000000
                 29       0.296400   0.0188336   0.5102680   0.0000000   0.0000000
                 30       0.087680   0.0000000   0.0000000   1.0000000   0.0000000
                 31       0.025000   0.0000000   0.0000000   0.0000000   1.0000000

 SI#1  1    Z   
+                32     315.900000   0.0039266  -0.0008583   0.0000000   0.0000000
                 33      74.420000   0.0298811  -0.0063033   0.0000000   0.0000000
                 34      23.480000   0.1272120  -0.0288255   0.0000000   0.0000000
                 35       8.488000   0.3209430  -0.0694560   0.0000000   0.0000000
                 36       3.217000   0.4554290  -0.1194930   0.0000000   0.0000000
                 37       1.229000   0.2685630  -0.0199581   0.0000000   0.0000000
                 38       0.296400   0.0188336   0.5102680   0.0000000   0.0000000
                 39       0.087680   0.0000000   0.0000000   1.0000000   0.0000000
                 40       0.025000   0.0000000   0.0000000   0.0000000   1.0000000

 SI#1  1    XX  
+                41       1.803000   1.0000000   0.0000000   0.0000000
                 42       0.275000   0.0000000   1.0000000   0.0000000
                 43       0.084000   0.0000000   0.0000000   1.0000000

 SI#1  1    XY  
+                44       1.803000   1.0000000   0.0000000   0.0000000
                 45       0.275000   0.0000000   1.0000000   0.0000000
                 46       0.084000   0.0000000   0.0000000   1.0000000

 SI#1  1    XZ  
+                47       1.803000   1.0000000   0.0000000   0.0000000
                 48       0.275000   0.0000000   1.0000000   0.0000000
                 49       0.084000   0.0000000   0.0000000   1.0000000

 SI#1  1    YY  
+                50       1.803000   1.0000000   0.0000000   0.0000000
                 51       0.275000   0.0000000   1.0000000   0.0000000
                 52       0.084000   0.0000000   0.0000000   1.0000000

 SI#1  1    YZ  
+                53       1.803000   1.0000000   0.0000000   0.0000000
                 54       0.275000   0.0000000   1.0000000   0.0000000
                 55       0.084000   0.0000000   0.0000000   1.0000000

 SI#1  1    ZZ  
+                56       1.803000   1.0000000   0.0000000   0.0000000
                 57       0.275000   0.0000000   1.0000000   0.0000000
                 58       0.084000   0.0000000   0.0000000   1.0000000
 35 32
  1  2  3  4  5  6  7  8  9 10 11********* 12 13 14 15 16 17 18 19 20 21 22
 23 24 25 26 27 28 29 30 31 32
1

             SYMMETRY TRANSFORMATION INFO
             32 SYMMETRY ADAPTED BASIS FUNCTIONS 


          irreducible representation number 1

    1    1  SI#1     1s     1   1   1.0
    2    2  SI#1     1s     1   2   1.0
    3    3  SI#1     1s     1   3   1.0
    4    4  SI#1     1s     1   4   1.0
    5    5  SI#1     1s     1   5   1.0
    6    6  SI#1     3d2-   3  18  -1.0  27  -1.0  33   2.0
    7    7  SI#1     3d2-   3  19  -1.0  28  -1.0  34   2.0
    8    8  SI#1     3d2-   3  20  -1.0  29  -1.0  35   2.0
    9    9  SI#1     3d1+   2  18   1.0  27  -1.0
   10   10  SI#1     3d1+   2  19   1.0  28  -1.0
   11   11  SI#1     3d1+   2  20   1.0  29  -1.0


          irreducible representation number 2

   12    1  SI#1     2px    1   6   1.0
   13    2  SI#1     2px    1   7   1.0
   14    3  SI#1     2px    1   8   1.0
   15    4  SI#1     2px    1   9   1.0


          irreducible representation number 3

   16    1  SI#1     2py    1  10   1.0
   17    2  SI#1     2py    1  11   1.0
   18    3  SI#1     2py    1  12   1.0
   19    4  SI#1     2py    1  13   1.0


          irreducible representation number 4

   20    1  SI#1     3d1-   1  21   1.0
   21    2  SI#1     3d1-   1  22   1.0
   22    3  SI#1     3d1-   1  23   1.0


          irreducible representation number 5

   23    1  SI#1     2pz    1  14   1.0
   24    2  SI#1     2pz    1  15   1.0
   25    3  SI#1     2pz    1  16   1.0
   26    4  SI#1     2pz    1  17   1.0


          irreducible representation number 6

   27    1  SI#1     3d0    1  24   1.0
   28    2  SI#1     3d0    1  25   1.0
   29    3  SI#1     3d0    1  26   1.0


          irreducible representation number 7

   30    1  SI#1     3d2+   1  30   1.0
   31    2  SI#1     3d2+   1  31   1.0
   32    3  SI#1     3d2+   1  32   1.0
  Nuclear repulsion energy :    0.0000000000 a.u.
  required memory for a1 array                5075868  words 
  required memory for a2 array                2210512  words 
 @GETMEM-I,  Allocated      70 MB of main memory.
  @MOLECU-I, One electron integrals (CPU/WALL):        0.02/       0.02 seconds.
  @TWOEL-I,       1206 integrals of symmetry type  I I I I
  @TWOEL-I,       5298 integrals of symmetry type  I J I J
  @TWOEL-I,       3732 integrals of symmetry type  I I J J
  @TWOEL-I,       6714 integrals of symmetry type  I J K L
  @TWOEL-I, Total number of 2-e integrals      16950.
  @MOLECU-I, Two electron integrals (CPU/WALL):        0.05/       0.07 seconds.
  @CHECKOUT-I, Total execution time (CPU/WALL):        0.08/       0.11 seconds.
--executable xvmol finished with status     0 in        0.15 seconds (walltime).
 --invoking executable--
/home/nike/cfour_v2.00beta/bin/xvmol2ja
 @GETMEM-I,  Allocated   30517 MB of main memory.
  @CHECKOUT-I, Total execution time (CPU/WALL):        0.00/       0.02 seconds.
--executable xvmol2ja finished with status     0 in        0.05 seconds (walltime).
 --invoking executable--
/home/nike/cfour_v2.00beta/bin/xvscf
  There are   32 functions in the AO basis.

  There are 8 irreducible representations.

       Irrep        # of functions
         1                 11
         2                  4
         3                  4
         4                  3
         5                  4
         6                  3
         7                  3
         8                  0


  Parameters for SCF calculation: 
        SCF reference function: ROHF  
  Maximum number of iterations: 9999
     Full symmetry point group: I h 
     Computational point group: D2h 
        Initial density matrix: MOREAD                 
     SCF convergence tolerance: 10**(-12)
  DIIS convergence acceleration:  ON
          Latest start for DIIS:   5
                     DIIS order:   6

     Alpha population by irrep:   3    2    2    0    1    0    0    0
      Beta population by irrep:   3    1    1    0    1    0    0    0


  Memory information:      82564 words required.
  Fock matrices are constructed from AO integral file.
 @GETMEM-I,  Allocated       0 MB of main memory.
  Initialization and symmetry analysis required      0.003 seconds.

  @DOVRLP-I, Eigenvalues of the diagonalized overlap matrix:

      Eigenvalues of irrep 1.

          0.0417312794     0.4032963558     0.9998928381     1.2021854279
          1.6061287223     2.3528940986     3.8636661349     4.8183861670
          6.5302051428    11.5909984047    19.5906154283


      Eigenvalues of irrep 2.

          0.1953397918     0.7628827168     1.0457216139     1.9960558775


      Eigenvalues of irrep 3.

          0.1953397918     0.7628827168     1.0457216139     1.9960558775


      Eigenvalues of irrep 4.

          0.4015321806     0.9659165337     1.6325512857


      Eigenvalues of irrep 5.

          0.1953397918     0.7628827168     1.0457216139     1.9960558775


      Eigenvalues of irrep 6.

          0.4015321806     0.9659165337     1.6325512857


      Eigenvalues of irrep 7.

          0.4015321806     0.9659165337     1.6325512857


 total no. of electrons in initial guess :  0.000000000000000E+000
 total no. of electrons in initial guess :  0.000000000000000E+000
  --------------------------------------------------------------------
  Iteration         Total Energy            Largest Density Difference
  --------------------------------------------------------------------
       0             0.000000000000000              0.0000000000D+00
   current occupation vector 
     3  2  2  0  1  0  0  0
     3  1  1  0  1  0  0  0
  processed                   1206  ao basis integrals from 
                     3  buffers.
  processed                   3732  ao basis integrals from 
                     7  buffers.
  processed                   5298  ao basis integrals from 
                     9  buffers.
       1          -281.048061247945952              0.1472756801D+01
  @DORPP2-I, Largest error matrix element:    -0.2195548934D+01.
   current occupation vector 
     3  2  2  0  1  0  0  0
     3  1  1  0  1  0  0  0
  processed                   1206  ao basis integrals from 
                     3  buffers.
  processed                   3732  ao basis integrals from 
                     7  buffers.
  processed                   5298  ao basis integrals from 
                     9  buffers.
       2          -287.277155234976533              0.1473171809D+01
  @DORPP2-I, Largest error matrix element:     0.5628152912D+00.
   current occupation vector 
     3  2  2  0  1  0  0  0
     3  1  1  0  1  0  0  0
  processed                   1206  ao basis integrals from 
                     3  buffers.
  processed                   3732  ao basis integrals from 
                     7  buffers.
  processed                   5298  ao basis integrals from 
                     9  buffers.
       3          -288.742197820723447              0.1460637094D+01
  @DORPP2-I, Largest error matrix element:    -0.2150270290D+00.
   current occupation vector 
     3  2  2  0  1  0  0  0
     3  1  1  0  1  0  0  0
  processed                   1206  ao basis integrals from 
                     3  buffers.
  processed                   3732  ao basis integrals from 
                     7  buffers.
  processed                   5298  ao basis integrals from 
                     9  buffers.
       4          -288.833692187071563              0.4200469137D+00
  @DORPP2-I, Largest error matrix element:     0.3819607236D-01.
  DIIS extrapolation vector 
 [   1]  -0.00434313316544278349 [   2]   0.00106657770812386573 [   3]  -0.04034455879211065049 [   4]   0.11298735485688357616
 [   5]   0.92629062622710311992
  sum of coefficients   0.995656866834557     
   current occupation vector 
     3  2  2  0  1  0  0  0
     3  1  1  0  1  0  0  0
 
 sum over diagonal and offdiagdiagonal of C(T)*S*C for irrep
                     1
  3.108624468950438E-015 -4.341522876343394E-014
 reorthoganalization of MOs is carried out
 sum over diagonal and offdiagdiagonal of C(T)*S*C for irrep
                     1
 -7.771561172376096E-016 -2.530484383369893E-016
 
 sum over diagonal and offdiagdiagonal of C(T)*S*C for irrep
                     2
  9.880984919163893E-015  2.075434008680377E-016
 reorthoganalization of MOs is carried out
 sum over diagonal and offdiagdiagonal of C(T)*S*C for irrep
                     2
 -1.110223024625157E-016  1.675092356490104E-017
 
 sum over diagonal and offdiagdiagonal of C(T)*S*C for irrep
                     3
  1.443289932012704E-014  1.159228962821501E-015
 reorthoganalization of MOs is carried out
 sum over diagonal and offdiagdiagonal of C(T)*S*C for irrep
                     3
  0.000000000000000E+000  8.359198749863239E-017
 
 sum over diagonal and offdiagdiagonal of C(T)*S*C for irrep
                     4
  1.065814103640150E-014 -2.426878142891553E-015
 reorthoganalization of MOs is carried out
 sum over diagonal and offdiagdiagonal of C(T)*S*C for irrep
                     4
  2.220446049250313E-016  3.634245682171411E-016
 
 sum over diagonal and offdiagdiagonal of C(T)*S*C for irrep
                     5
 -3.996802888650564E-015  4.381640449774293E-015
 reorthoganalization of MOs is carried out
 sum over diagonal and offdiagdiagonal of C(T)*S*C for irrep
                     5
  6.661338147750939E-016 -6.104058231093390E-016
 
 sum over diagonal and offdiagdiagonal of C(T)*S*C for irrep
                     6
  7.327471962526033E-015  2.535298360140104E-015
 reorthoganalization of MOs is carried out
 sum over diagonal and offdiagdiagonal of C(T)*S*C for irrep
                     6
 -3.330669073875470E-016  3.955169525227120E-016
 
 sum over diagonal and offdiagdiagonal of C(T)*S*C for irrep
                     7
  6.217248937900877E-015  1.963706974805746E-015
 reorthoganalization of MOs is carried out
 sum over diagonal and offdiagdiagonal of C(T)*S*C for irrep
                     7
 -4.440892098500626E-016  1.960237527853792E-016
  processed                   1206  ao basis integrals from 
                     3  buffers.
  processed                   3732  ao basis integrals from 
                     7  buffers.
  processed                   5298  ao basis integrals from 
                     9  buffers.
       5          -288.846858560145449              0.1056539620D+00
  @DORPP2-I, Largest error matrix element:    -0.6369800417D-02.
  DIIS extrapolation vector 
 [   1]  -0.00025721892632186300 [   2]   0.00103764402358494292 [   3]  -0.00321226441437772684 [   4]   0.01487788781887401310
 [   5]   0.07282131731599254809 [   6]   0.91447541525592634937
  sum of coefficients   0.999742781073678     
   current occupation vector 
     3  2  2  0  1  0  0  0
     3  1  1  0  1  0  0  0
  processed                   1206  ao basis integrals from 
                     3  buffers.
  processed                   3732  ao basis integrals from 
                     7  buffers.
  processed                   5298  ao basis integrals from 
                     9  buffers.
       6          -288.847046686964802              0.2136488991D-01
  @DORPP2-I, Largest error matrix element:    -0.1887347259D-02.
  DIIS extrapolation vector 
 [   1]  -0.00000280075594886802 [   2]  -0.00009537120179875996 [   3]   0.00191673710785079531 [   4]  -0.00612793426033756035
 [   5]  -0.03514755960065162055 [   6]  -0.31376765114170168669 [   7]   1.35322177909663876605
  sum of coefficients   0.999997199244051     
   current occupation vector 
     3  2  2  0  1  0  0  0
     3  1  1  0  1  0  0  0
  processed                   1206  ao basis integrals from 
                     3  buffers.
  processed                   3732  ao basis integrals from 
                     7  buffers.
  processed                   5298  ao basis integrals from 
                     9  buffers.
       7          -288.847061341102801              0.4240140665D-02
  @DORPP2-I, Largest error matrix element:     0.5776652896D-03.
  DIIS extrapolation vector 
 [   1]  -0.00000005809914481111 [   2]   0.00022376928572291702 [   3]  -0.00209585040573464099 [   4]   0.00185741077635528159
 [   5]  -0.04109042777260629720 [   6]   0.10573937110223907698 [   7]   0.93536572701402365126
  sum of coefficients   0.999999941900855     
   current occupation vector 
     3  2  2  0  1  0  0  0
     3  1  1  0  1  0  0  0
  processed                   1206  ao basis integrals from 
                     3  buffers.
  processed                   3732  ao basis integrals from 
                     7  buffers.
  processed                   5298  ao basis integrals from 
                     9  buffers.
       8          -288.847062525561398              0.7978674630D-03
  @DORPP2-I, Largest error matrix element:    -0.5313531206D-04.
  DIIS extrapolation vector 
 [   1]  -0.00000000062096607225 [   2]   0.00040142651576812989 [   3]  -0.00152219374690706422 [   4]   0.01377382171197964918
 [   5]  -0.02516095379192153161 [   6]  -0.34988171844428656021 [   7]   1.36238961775536737697
  sum of coefficients   0.999999999379034     
   current occupation vector 
     3  2  2  0  1  0  0  0
     3  1  1  0  1  0  0  0
  processed                   1206  ao basis integrals from 
                     3  buffers.
  processed                   3732  ao basis integrals from 
                     7  buffers.
  processed                   5298  ao basis integrals from 
                     9  buffers.
       9          -288.847062536318504              0.1390029126D-03
  @DORPP2-I, Largest error matrix element:    -0.4882533480D-05.
  DIIS extrapolation vector 
 [   1]  -0.00000000000228338978 [   2]   0.00009372900580175694 [   3]  -0.00155713693440566242 [   4]   0.00401622300814251029
 [   5]   0.01246123855562436544 [   6]  -0.02774859364310868631 [   7]   1.01273454000794571606
  sum of coefficients   0.999999999997717     
   current occupation vector 
     3  2  2  0  1  0  0  0
     3  1  1  0  1  0  0  0
 
 sum over diagonal and offdiagdiagonal of C(T)*S*C for irrep
                     1
  2.176037128265307E-014  7.509850503695308E-015
 reorthoganalization of MOs is carried out
 sum over diagonal and offdiagdiagonal of C(T)*S*C for irrep
                     1
  5.551115123125783E-016  1.284579266742186E-015
 
 sum over diagonal and offdiagdiagonal of C(T)*S*C for irrep
                     2
 -3.774758283725532E-015 -1.429791614965259E-016
 reorthoganalization of MOs is carried out
 sum over diagonal and offdiagdiagonal of C(T)*S*C for irrep
                     2
  0.000000000000000E+000  2.294984948608692E-016
 
 sum over diagonal and offdiagdiagonal of C(T)*S*C for irrep
                     3
 -2.997602166487923E-015 -4.386139888790108E-016
 reorthoganalization of MOs is carried out
 sum over diagonal and offdiagdiagonal of C(T)*S*C for irrep
                     3
  0.000000000000000E+000  4.576688420604436E-016
 
 sum over diagonal and offdiagdiagonal of C(T)*S*C for irrep
                     4
  6.661338147750939E-015  1.908195823574488E-016
 reorthoganalization of MOs is carried out
 sum over diagonal and offdiagdiagonal of C(T)*S*C for irrep
                     4
  2.220446049250313E-016  4.093947403305265E-016
 
 sum over diagonal and offdiagdiagonal of C(T)*S*C for irrep
                     5
 -5.551115123125783E-016 -1.522246955223960E-015
 reorthoganalization of MOs is carried out
 sum over diagonal and offdiagdiagonal of C(T)*S*C for irrep
                     5
  0.000000000000000E+000  1.426267957904681E-016
 
 sum over diagonal and offdiagdiagonal of C(T)*S*C for irrep
                     6
  2.664535259100376E-015  3.634245682171411E-016
 reorthoganalization of MOs is carried out
 sum over diagonal and offdiagdiagonal of C(T)*S*C for irrep
                     6
 -2.220446049250313E-016  5.204170427930421E-017
 
 sum over diagonal and offdiagdiagonal of C(T)*S*C for irrep
                     7
  5.551115123125783E-015  5.663872149064275E-016
 reorthoganalization of MOs is carried out
 sum over diagonal and offdiagdiagonal of C(T)*S*C for irrep
                     7
 -2.220446049250313E-016  1.032160468206200E-016
  processed                   1206  ao basis integrals from 
                     3  buffers.
  processed                   3732  ao basis integrals from 
                     7  buffers.
  processed                   5298  ao basis integrals from 
                     9  buffers.
      10          -288.847062536593000              0.2914339290D-04
  @DORPP2-I, Largest error matrix element:    -0.4021241474D-06.
  DIIS extrapolation vector 
 [   1]  -0.00000000000002969662 [   2]   0.00005428790016590983 [   3]  -0.00028430179795017576 [   4]   0.00070852973283942690
 [   5]  -0.00420514925954227486 [   6]   0.01431685509683879899 [   7]   0.98940977832764831490
  sum of coefficients   0.999999999999970     
   current occupation vector 
     3  2  2  0  1  0  0  0
     3  1  1  0  1  0  0  0
  processed                   1206  ao basis integrals from 
                     3  buffers.
  processed                   3732  ao basis integrals from 
                     7  buffers.
  processed                   5298  ao basis integrals from 
                     9  buffers.
      11          -288.847062536595104              0.1721046801D-05
  @DORPP2-I, Largest error matrix element:     0.9845568660D-08.
  DIIS extrapolation vector 
 [   1]  -0.00000000000000039821 [   2]   0.00000572940789646788 [   3]  -0.00004881913240462011 [   4]   0.00021164424158638014
 [   5]  -0.00354444097715927910 [   6]  -0.05959513422179971154 [   7]   1.06297102068188076274
  sum of coefficients    1.00000000000000     
   current occupation vector 
     3  2  2  0  1  0  0  0
     3  1  1  0  1  0  0  0
  processed                   1206  ao basis integrals from 
                     3  buffers.
  processed                   3732  ao basis integrals from 
                     7  buffers.
  processed                   5298  ao basis integrals from 
                     9  buffers.
      12          -288.847062536595445              0.1298676033D-07
  @DORPP2-I, Largest error matrix element:    -0.1380210015D-08.
  DIIS extrapolation vector 
 [   1]  -0.00000000000000000342 [   2]   0.00000295900485112188 [   3]   0.00000409436536509608 [   4]   0.00031289930440389754
 [   5]   0.00364912259659978073 [   6]  -0.19866501309300885203 [   7]   1.19469593782178895580
  sum of coefficients    1.00000000000000     
   current occupation vector 
     3  2  2  0  1  0  0  0
     3  1  1  0  1  0  0  0
  processed                   1206  ao basis integrals from 
                     3  buffers.
  processed                   3732  ao basis integrals from 
                     7  buffers.
  processed                   5298  ao basis integrals from 
                     9  buffers.
      13          -288.847062536595445              0.3609083032D-09
  @DORPP2-I, Largest error matrix element:    -0.1261344140D-09.
  DIIS extrapolation vector 
 [   1]  -0.00000000000000000007 [   2]  -0.00000154413208923199 [   3]  -0.00000674017334442570 [   4]   0.00000769210328019684
 [   5]   0.00334090523798876533 [   6]  -0.08557089527351562086 [   7]   1.08223058223768031638
  sum of coefficients    1.00000000000000     
   current occupation vector 
     3  2  2  0  1  0  0  0
     3  1  1  0  1  0  0  0
  processed                   1206  ao basis integrals from 
                     3  buffers.
  processed                   3732  ao basis integrals from 
                     7  buffers.
  processed                   5298  ao basis integrals from 
                     9  buffers.
      14          -288.847062536595615              0.1315926257D-09
  @DORPP2-I, Largest error matrix element:    -0.3960262734D-10.
  DIIS extrapolation vector 
 [   1]   0.00000000000000000000 [   2]   0.00000007547634373873 [   3]  -0.00000556804524663266 [   4]  -0.00159377336352064625
 [   5]   0.02014202280874704751 [   6]  -0.28284085928449537173 [   7]   1.26429810240817186440
  sum of coefficients    1.00000000000000     
   current occupation vector 
     3  2  2  0  1  0  0  0
     3  1  1  0  1  0  0  0
 
 sum over diagonal and offdiagdiagonal of C(T)*S*C for irrep
                     1
  2.753353101070388E-014 -5.080624485245206E-015
 reorthoganalization of MOs is carried out
 sum over diagonal and offdiagdiagonal of C(T)*S*C for irrep
                     1
 -1.554312234475219E-015 -2.966441318143171E-016
 
 sum over diagonal and offdiagdiagonal of C(T)*S*C for irrep
                     2
  1.332267629550188E-015 -3.356147824928879E-016
 reorthoganalization of MOs is carried out
 sum over diagonal and offdiagdiagonal of C(T)*S*C for irrep
                     2
  0.000000000000000E+000 -9.550736937424809E-016
 
 sum over diagonal and offdiagdiagonal of C(T)*S*C for irrep
                     3
 -7.438494264988549E-015  2.256522876539768E-015
 reorthoganalization of MOs is carried out
 sum over diagonal and offdiagdiagonal of C(T)*S*C for irrep
                     3
 -4.440892098500626E-016 -4.914417397333670E-016
 
 sum over diagonal and offdiagdiagonal of C(T)*S*C for irrep
                     4
  8.881784197001252E-016 -6.626643678231403E-016
 reorthoganalization of MOs is carried out
 sum over diagonal and offdiagdiagonal of C(T)*S*C for irrep
                     4
 -2.220446049250313E-016 -5.204170427930421E-017
 
 sum over diagonal and offdiagdiagonal of C(T)*S*C for irrep
                     5
 -8.659739592076221E-015 -2.082210272258411E-015
 reorthoganalization of MOs is carried out
 sum over diagonal and offdiagdiagonal of C(T)*S*C for irrep
                     5
 -4.440892098500626E-016 -9.446111427779957E-017
 
 sum over diagonal and offdiagdiagonal of C(T)*S*C for irrep
                     6
  3.330669073875470E-016 -4.996003610813204E-016
 reorthoganalization of MOs is carried out
 sum over diagonal and offdiagdiagonal of C(T)*S*C for irrep
                     6
  0.000000000000000E+000 -1.023486850826316E-016
 
 sum over diagonal and offdiagdiagonal of C(T)*S*C for irrep
                     7
  5.551115123125783E-015  4.276093368282829E-016
 reorthoganalization of MOs is carried out
 sum over diagonal and offdiagdiagonal of C(T)*S*C for irrep
                     7
  2.220446049250313E-016  2.489328188026718E-016
  processed                   1206  ao basis integrals from 
                     3  buffers.
  processed                   3732  ao basis integrals from 
                     7  buffers.
  processed                   5298  ao basis integrals from 
                     9  buffers.
      15          -288.847062536595615              0.6491557292D-10
  @DORPP2-I, Largest error matrix element:     0.3910629343D-11.
  DIIS extrapolation vector 
 [   1]   0.00000000000000000000 [   2]   0.00000321013843352118 [   3]   0.00036050491734557774 [   4]  -0.00425617893884478772
 [   5]   0.06826383128273688650 [   6]  -0.34970172578818059517 [   7]   1.28533035838850939747
  sum of coefficients    1.00000000000000     
   current occupation vector 
     3  2  2  0  1  0  0  0
     3  1  1  0  1  0  0  0
  processed                   1206  ao basis integrals from 
                     3  buffers.
  processed                   3732  ao basis integrals from 
                     7  buffers.
  processed                   5298  ao basis integrals from 
                     9  buffers.
      16          -288.847062536595445              0.1263666949D-10
  @DORPP2-I, Largest error matrix element:    -0.1832645183D-12.
  DIIS extrapolation vector 
 [   1]   0.00000000000000000000 [   2]   0.00001424245806133862 [   3]  -0.00017933918424689084 [   4]   0.00135466324072843771
 [   5]   0.00121661707405953056 [   6]  -0.00876778365954452438 [   7]   1.00636160007094210833
  sum of coefficients    1.00000000000000     
   current occupation vector 
     3  2  2  0  1  0  0  0
     3  1  1  0  1  0  0  0

  SCF has converged.

 Density matrix saved to file den.dat
 total alpha spin electron number:   8.00000000000000     
 total  beta spin electron number:   6.00000000000000     
  processed                   1206  ao basis integrals from 
                     3  buffers.
  processed                   3732  ao basis integrals from 
                     7  buffers.
  processed                   5298  ao basis integrals from 
                     9  buffers.
     E(ROHF)=      -288.847062536595615              0.3060884879D-12


  ORBITAL EIGENVECTORS

  SYMMETRY BLOCK 1 (ALPHA)

                          MO #  1       MO #  2       MO #  3       MO #  4

    BASIS/ORB E          -68.81947      -6.16364      -0.61930       0.07136
                        ----------    ----------    ----------    ----------
    1; SI#1                1.00002       0.00027       0.00062       0.01960
    2; SI#1                0.00007       1.00488       0.00484       0.14304
    3; SI#1                0.00011       0.00311       0.55314       0.01381
    4; SI#1               -0.00053      -0.01675       0.52117      -1.38214
    5; SI#1                0.00018       0.00510       0.01243       1.79538
    6; SI#1                0.00000       0.00033      -0.00005      -0.00003
    7; SI#1                0.00000      -0.00003      -0.00013      -0.00356
    8; SI#1                0.00000      -0.00002      -0.00223       0.01053
    9; SI#1                0.00000       0.00000       0.00000       0.00000
   10; SI#1                0.00000       0.00000       0.00000       0.00000
   11; SI#1                0.00000       0.00000       0.00000       0.00000


                          MO #  5       MO #  6       MO #  7       MO #  8

    BASIS/ORB E            0.21115       0.20145       0.54649       0.65960
                        ----------    ----------    ----------    ----------
    1; SI#1                0.00313       0.00000       0.17841       0.00522
    2; SI#1                0.02436       0.00000       1.41021       0.04167
    3; SI#1                0.02977       0.00000       2.35381       0.07140
    4; SI#1               -0.09338       0.00000      -3.39875      -0.08803
    5; SI#1                0.07173       0.00000       1.34678       0.02082
    6; SI#1               -0.00756       0.00000       0.00154      -0.02971
    7; SI#1               -0.00858       0.00000       0.01011      -0.33597
    8; SI#1               -0.28314       0.00000      -0.00189       0.19893
    9; SI#1                0.00000       0.01364       0.00000       0.00000
   10; SI#1                0.00000       0.01968       0.00000       0.00000
   11; SI#1                0.00000       0.48781       0.00000       0.00000


                          MO #  9       MO # 10       MO # 11

    BASIS\ORB E            0.65144       3.31776       3.33611
                        ----------    ----------    ----------
    1; SI#1                0.00000       0.00032       0.00000
    2; SI#1                0.00000       0.00361       0.00000
    3; SI#1                0.00000       0.00420       0.00000
    4; SI#1                0.00000      -0.00638       0.00000
    5; SI#1                0.00000       0.00286       0.00000
    6; SI#1                0.00000      -0.29934       0.00000
    7; SI#1                0.00000       0.13521       0.00000
    8; SI#1                0.00000      -0.05572       0.00000
    9; SI#1                0.05170       0.00000       0.51844
   10; SI#1                0.58192       0.00000      -0.23454
   11; SI#1               -0.34872       0.00000       0.09663


  SYMMETRY BLOCK 2 (ALPHA)

                          MO # 12       MO # 13       MO # 14       MO # 15

    BASIS/ORB E           -4.27011      -0.29719       0.07737       0.52545
                        ----------    ----------    ----------    ----------
   12; SI#1                1.00019       0.00236       0.01855       0.26294
   13; SI#1               -0.00074       0.51150      -0.08616       1.28492
   14; SI#1               -0.00316       0.57635      -0.60452      -1.53019
   15; SI#1                0.00099       0.03876       1.24741       0.54843


  SYMMETRY BLOCK 3 (ALPHA)

                          MO # 16       MO # 17       MO # 18       MO # 19

    BASIS/ORB E           -4.27011      -0.29719       0.07737       0.52545
                        ----------    ----------    ----------    ----------
   16; SI#1                1.00019       0.00236       0.01855       0.26294
   17; SI#1               -0.00074       0.51150      -0.08616       1.28492
   18; SI#1               -0.00316       0.57635      -0.60452      -1.53019
   19; SI#1                0.00099       0.03876       1.24741       0.54843


  SYMMETRY BLOCK 4 (ALPHA)

                          MO # 20       MO # 21       MO # 22

    BASIS\ORB E            0.20145       0.65144       3.33611
                        ----------    ----------    ----------
   20; SI#1                0.02729       0.10341       1.03687
   21; SI#1                0.03936       1.16385      -0.46908
   22; SI#1                0.97563      -0.69744       0.19326


  SYMMETRY BLOCK 5 (ALPHA)

                          MO # 23       MO # 24       MO # 25       MO # 26

    BASIS/ORB E           -4.26193      -0.01644       0.08744       0.54629
                        ----------    ----------    ----------    ----------
   23; SI#1                1.00063       0.01631       0.03109       0.25957
   24; SI#1                0.00215      -0.31438      -0.20730       1.33352
   25; SI#1               -0.00474      -0.43757      -0.86103      -1.45130
   26; SI#1                0.00147      -0.46847       1.16385       0.53319


  SYMMETRY BLOCK 6 (ALPHA)

                          MO # 27       MO # 28       MO # 29

    BASIS\ORB E            0.20846       0.65744       3.32234
                        ----------    ----------    ----------
   27; SI#1                0.02648       0.10313       1.03692
   28; SI#1                0.03188       1.16428      -0.46856
   29; SI#1                0.98011      -0.69118       0.19308


  SYMMETRY BLOCK 7 (ALPHA)

                          MO # 30       MO # 31       MO # 32

    BASIS\ORB E            0.20846       0.65744       3.32234
                        ----------    ----------    ----------
   30; SI#1                0.02648       0.10313       1.03692
   31; SI#1                0.03188       1.16428      -0.46856
   32; SI#1                0.98011      -0.69118       0.19308


  SYMMETRY BLOCK 8 (ALPHA)


  ORBITAL EIGENVECTORS

  SYMMETRY BLOCK 1 ( BETA)

                          MO #  1       MO #  2       MO #  3       MO #  4

    BASIS/ORB E          -68.81055      -6.15281      -0.46302       0.08345
                        ----------    ----------    ----------    ----------
    1; SI#1                1.00002       0.00027       0.00062       0.01960
    2; SI#1                0.00007       1.00488       0.00484       0.14304
    3; SI#1                0.00011       0.00311       0.55314       0.01381
    4; SI#1               -0.00053      -0.01675       0.52117      -1.38214
    5; SI#1                0.00018       0.00510       0.01243       1.79538
    6; SI#1                0.00000       0.00033      -0.00005      -0.00003
    7; SI#1                0.00000      -0.00003      -0.00013      -0.00356
    8; SI#1                0.00000      -0.00002      -0.00223       0.01053
    9; SI#1                0.00000       0.00000       0.00000       0.00000
   10; SI#1                0.00000       0.00000       0.00000       0.00000
   11; SI#1                0.00000       0.00000       0.00000       0.00000


                          MO #  5       MO #  6       MO #  7       MO #  8

    BASIS/ORB E            0.23480       0.25907       0.58003       0.69668
                        ----------    ----------    ----------    ----------
    1; SI#1                0.00313       0.00000       0.17841       0.00522
    2; SI#1                0.02436       0.00000       1.41021       0.04167
    3; SI#1                0.02977       0.00000       2.35381       0.07140
    4; SI#1               -0.09338       0.00000      -3.39875      -0.08803
    5; SI#1                0.07173       0.00000       1.34678       0.02082
    6; SI#1               -0.00756       0.00000       0.00154      -0.02971
    7; SI#1               -0.00858       0.00000       0.01011      -0.33597
    8; SI#1               -0.28314       0.00000      -0.00189       0.19893
    9; SI#1                0.00000       0.01364       0.00000       0.00000
   10; SI#1                0.00000       0.01968       0.00000       0.00000
   11; SI#1                0.00000       0.48781       0.00000       0.00000


                          MO #  9       MO # 10       MO # 11

    BASIS\ORB E            0.73429       3.32380       3.34843
                        ----------    ----------    ----------
    1; SI#1                0.00000       0.00032       0.00000
    2; SI#1                0.00000       0.00361       0.00000
    3; SI#1                0.00000       0.00420       0.00000
    4; SI#1                0.00000      -0.00638       0.00000
    5; SI#1                0.00000       0.00286       0.00000
    6; SI#1                0.00000      -0.29934       0.00000
    7; SI#1                0.00000       0.13521       0.00000
    8; SI#1                0.00000      -0.05572       0.00000
    9; SI#1                0.05170       0.00000       0.51844
   10; SI#1                0.58192       0.00000      -0.23454
   11; SI#1               -0.34872       0.00000       0.09663


  SYMMETRY BLOCK 2 ( BETA)

                          MO # 12       MO # 13       MO # 14       MO # 15

    BASIS/ORB E           -4.24395       0.07728       0.08821       0.58531
                        ----------    ----------    ----------    ----------
   12; SI#1                1.00019       0.00236       0.01855       0.26294
   13; SI#1               -0.00074       0.51150      -0.08616       1.28492
   14; SI#1               -0.00316       0.57635      -0.60452      -1.53019
   15; SI#1                0.00099       0.03876       1.24741       0.54843


  SYMMETRY BLOCK 3 ( BETA)

                          MO # 16       MO # 17       MO # 18       MO # 19

    BASIS/ORB E           -4.24395       0.07728       0.08821       0.58531
                        ----------    ----------    ----------    ----------
   16; SI#1                1.00019       0.00236       0.01855       0.26294
   17; SI#1               -0.00074       0.51150      -0.08616       1.28492
   18; SI#1               -0.00316       0.57635      -0.60452      -1.53019
   19; SI#1                0.00099       0.03876       1.24741       0.54843


  SYMMETRY BLOCK 4 ( BETA)

                          MO # 20       MO # 21       MO # 22

    BASIS\ORB E            0.25907       0.73429       3.34843
                        ----------    ----------    ----------
   20; SI#1                0.02729       0.10341       1.03687
   21; SI#1                0.03936       1.16385      -0.46908
   22; SI#1                0.97563      -0.69744       0.19326


  SYMMETRY BLOCK 5 ( BETA)

                          MO # 23       MO # 24       MO # 25       MO # 26

    BASIS/ORB E           -4.25713       0.01176       0.09937       0.56258
                        ----------    ----------    ----------    ----------
   23; SI#1                1.00063       0.01631       0.03109       0.25957
   24; SI#1                0.00215      -0.31438      -0.20730       1.33352
   25; SI#1               -0.00474      -0.43757      -0.86103      -1.45130
   26; SI#1                0.00147      -0.46847       1.16385       0.53319


  SYMMETRY BLOCK 6 ( BETA)

                          MO # 27       MO # 28       MO # 29

    BASIS\ORB E            0.24101       0.70591       3.32993
                        ----------    ----------    ----------
   27; SI#1                0.02648       0.10313       1.03692
   28; SI#1                0.03188       1.16428      -0.46856
   29; SI#1                0.98011      -0.69118       0.19308


  SYMMETRY BLOCK 7 ( BETA)

                          MO # 30       MO # 31       MO # 32

    BASIS\ORB E            0.24101       0.70591       3.32993
                        ----------    ----------    ----------
   30; SI#1                0.02648       0.10313       1.03692
   31; SI#1                0.03188       1.16428      -0.46856
   32; SI#1                0.98011      -0.69118       0.19308


  SYMMETRY BLOCK 8 ( BETA)


       The average multiplicity is    3.0000000
  The expectation value of S**2 is    2.0000000

 @PUTMOS-I, Writing converged MOs to NEWMOS. 
 @PUTMOS-I, Symmetry   1 Full Blocks  2 Partial Blocksize   3
 @PUTMOS-I, Symmetry   2 Full Blocks  1 Partial Blocksize   0
 @PUTMOS-I, Symmetry   3 Full Blocks  1 Partial Blocksize   0
 @PUTMOS-I, Symmetry   4 Full Blocks  0 Partial Blocksize   3
 @PUTMOS-I, Symmetry   5 Full Blocks  1 Partial Blocksize   0
 @PUTMOS-I, Symmetry   6 Full Blocks  0 Partial Blocksize   3
 @PUTMOS-I, Symmetry   7 Full Blocks  0 Partial Blocksize   3
 @PUTMOS-I, Symmetry   8 Full Blocks  0 Partial Blocksize   0
  @DMPJOB-I, Rotating orbitals to semicanonical basis.
             *** Eigenvalues correspond to new basis. ***

--------------------------------------------------------------------------------
Eigenvalue    -68.819471     -6.163646     -4.270106     -4.270106     -4.261931
 Symmetry          Ag            Ag             u             u            Au    
--------------------------------------------------------------------------------
   1 S         1.0000196     0.0002308     0.0000000     0.0000000     0.0000000
   1 S         0.0001153     1.0048789     0.0000000     0.0000000     0.0000000
   1 S         0.0000980     0.0035575     0.0000000     0.0000000     0.0000000
   1 S        -0.0005428    -0.0163347     0.0000000     0.0000000     0.0000000
   1 S         0.0001755     0.0051112     0.0000000     0.0000000     0.0000000
   1 PX        0.0000000     0.0000000     0.0000000     1.0001860     0.0000000
   1 PY        0.0000000     0.0000000     1.0001860     0.0000000     0.0000000
   1 PZ        0.0000000     0.0000000     0.0000000     0.0000000     1.0006268
   1 PX        0.0000000     0.0000000     0.0000000    -0.0009597     0.0000000
   1 PY        0.0000000     0.0000000    -0.0009597     0.0000000     0.0000000
   1 PZ        0.0000000     0.0000000     0.0000000     0.0000000     0.0021546
   1 PX        0.0000000     0.0000000     0.0000000    -0.0033987     0.0000000
   1 PY        0.0000000     0.0000000    -0.0033987     0.0000000     0.0000000
   1 PZ        0.0000000     0.0000000     0.0000000     0.0000000    -0.0047426
   1 PX        0.0000000     0.0000000     0.0000000     0.0009696     0.0000000
   1 PY        0.0000000     0.0000000     0.0009696     0.0000000     0.0000000
   1 PZ        0.0000000     0.0000000     0.0000000     0.0000000     0.0014719
   1 DX2      -0.0000006    -0.0003308     0.0000000     0.0000000     0.0000000
   1 DXY       0.0000000     0.0000000     0.0000000     0.0000000     0.0000000
   1 DXZ       0.0000000     0.0000000     0.0000000     0.0000000     0.0000000
   1 DY2      -0.0000006    -0.0003308     0.0000000     0.0000000     0.0000000
   1 DYZ       0.0000000     0.0000000     0.0000000     0.0000000     0.0000000
   1 DZZ       0.0000011     0.0006616     0.0000000     0.0000000     0.0000000
   1 DX2      -0.0000018     0.0000277     0.0000000     0.0000000     0.0000000
   1 DXY       0.0000000     0.0000000     0.0000000     0.0000000     0.0000000
   1 DXZ       0.0000000     0.0000000     0.0000000     0.0000000     0.0000000
   1 DY2      -0.0000018     0.0000277     0.0000000     0.0000000     0.0000000
   1 DYZ       0.0000000     0.0000000     0.0000000     0.0000000     0.0000000
   1 DZZ       0.0000037    -0.0000555     0.0000000     0.0000000     0.0000000
   1 DX2       0.0000002     0.0000190     0.0000000     0.0000000     0.0000000
   1 DXY       0.0000000     0.0000000     0.0000000     0.0000000     0.0000000
   1 DXZ       0.0000000     0.0000000     0.0000000     0.0000000     0.0000000
   1 DY2       0.0000002     0.0000190     0.0000000     0.0000000     0.0000000
   1 DYZ       0.0000000     0.0000000     0.0000000     0.0000000     0.0000000
   1 DZZ      -0.0000005    -0.0000380     0.0000000     0.0000000     0.0000000
--------------------------------------------------------------------------------
Eigenvalue     -0.619296     -0.297193     -0.297193     -0.017149      0.071184
 Symmetry          Ag             u             u            Au            Ag    
--------------------------------------------------------------------------------
   1 S         0.0006437     0.0000000     0.0000000     0.0000000     0.0168463
   1 S         0.0040288     0.0000000     0.0000000     0.0000000     0.1212353
   1 S         0.5531386     0.0000000     0.0000000     0.0000000    -0.0227172
   1 S         0.5211846     0.0000000     0.0000000     0.0000000    -1.3299867
   1 S         0.0124230     0.0000000     0.0000000     0.0000000     1.7750354
   1 PX        0.0000000     0.0000000     0.0027778     0.0000000     0.0000000
   1 PY        0.0000000     0.0027778     0.0000000     0.0000000     0.0000000
   1 PZ        0.0000000     0.0000000     0.0000000     0.0170409     0.0000000
   1 PX        0.0000000     0.0000000     0.5114978     0.0000000     0.0000000
   1 PY        0.0000000     0.5114978     0.0000000     0.0000000     0.0000000
   1 PZ        0.0000000     0.0000000     0.0000000    -0.3388972     0.0000000
   1 PX        0.0000000     0.0000000     0.5763503     0.0000000     0.0000000
   1 PY        0.0000000     0.5763503     0.0000000     0.0000000     0.0000000
   1 PZ        0.0000000     0.0000000     0.0000000    -0.4959424     0.0000000
   1 PX        0.0000000     0.0000000     0.0387582     0.0000000     0.0000000
   1 PY        0.0000000     0.0387582     0.0000000     0.0000000     0.0000000
   1 PZ        0.0000000     0.0000000     0.0000000    -0.3766247     0.0000000
   1 DX2       0.0000541     0.0000000     0.0000000     0.0000000    -0.0000057
   1 DXY       0.0000000     0.0000000     0.0000000     0.0000000     0.0000000
   1 DXZ       0.0000000     0.0000000     0.0000000     0.0000000     0.0000000
   1 DY2       0.0000541     0.0000000     0.0000000     0.0000000    -0.0000057
   1 DYZ       0.0000000     0.0000000     0.0000000     0.0000000     0.0000000
   1 DZZ      -0.0001081     0.0000000     0.0000000     0.0000000     0.0000115
   1 DX2       0.0001341     0.0000000     0.0000000     0.0000000     0.0022991
   1 DXY       0.0000000     0.0000000     0.0000000     0.0000000     0.0000000
   1 DXZ       0.0000000     0.0000000     0.0000000     0.0000000     0.0000000
   1 DY2       0.0001341     0.0000000     0.0000000     0.0000000     0.0022991
   1 DYZ       0.0000000     0.0000000     0.0000000     0.0000000     0.0000000
   1 DZZ      -0.0002682     0.0000000     0.0000000     0.0000000    -0.0045982
   1 DX2       0.0022305     0.0000000     0.0000000     0.0000000    -0.0044405
   1 DXY       0.0000000     0.0000000     0.0000000     0.0000000     0.0000000
   1 DXZ       0.0000000     0.0000000     0.0000000     0.0000000     0.0000000
   1 DY2       0.0022305     0.0000000     0.0000000     0.0000000    -0.0044405
   1 DYZ       0.0000000     0.0000000     0.0000000     0.0000000     0.0000000
   1 DZZ      -0.0044610     0.0000000     0.0000000     0.0000000     0.0088810
--------------------------------------------------------------------------------
Eigenvalue      0.077142      0.077142      0.088097      0.200132      0.200132
 Symmetry           u             u            Au             g             g    
--------------------------------------------------------------------------------
   1 S         0.0000000     0.0000000     0.0000000     0.0000000     0.0000000
   1 S         0.0000000     0.0000000     0.0000000     0.0000000     0.0000000
   1 S         0.0000000     0.0000000     0.0000000     0.0000000     0.0000000
   1 S         0.0000000     0.0000000     0.0000000     0.0000000     0.0000000
   1 S         0.0000000     0.0000000     0.0000000     0.0000000     0.0000000
   1 PX        0.0000000     0.0126508     0.0000000     0.0000000     0.0000000
   1 PY        0.0126508     0.0000000     0.0000000     0.0000000     0.0000000
   1 PZ        0.0000000     0.0000000     0.0276365     0.0000000     0.0000000
   1 PX        0.0000000    -0.1149378     0.0000000     0.0000000     0.0000000
   1 PY       -0.1149378     0.0000000     0.0000000     0.0000000     0.0000000
   1 PZ        0.0000000     0.0000000    -0.1917235     0.0000000     0.0000000
   1 PX        0.0000000    -0.5700762     0.0000000     0.0000000     0.0000000
[...]
-0.2120989-0.2115009 0.1154731
  Eigenvector # 11:
 0.3820709-0.2479129 0.1425918-0.0991039-0.3234470-0.1770213 0.0000000-0.0250922
-0.0997099 0.1059139-0.3118915-0.4670636 0.1194580 0.2981051 0.2141782-0.2395925
-0.0152753 0.2794369-0.0671291
  Eigenvector # 12:
-0.2904945-0.0153788 0.1183974 0.2555397 0.2004807 0.3551459 0.0000000-0.0229989
 0.4883069-0.0978307 0.1012847-0.0052535 0.1058489 0.4818813 0.2191242-0.2071178
-0.0369851 0.2634350-0.0762540
  Eigenvector # 13:
 0.0406853 0.0228635 0.3001151-0.1020245 0.0910259-0.1332192 0.0000000-0.5013043
 0.0576257 0.2192834-0.2030617 0.1970486-0.5898424 0.1552602-0.3257064-0.0303598
 0.0632413 0.0694080-0.0263361
  Eigenvector # 14:
-0.5958874-0.2804331-0.2124715 0.3275213-0.4306041-0.1943489 0.0000000-0.0096374
-0.0310546-0.1686724-0.2724639-0.0286050-0.2449692-0.1234681-0.0074789-0.0770826
 0.0508976 0.0443527-0.0172510
  Eigenvector # 15:
 0.3857364 0.4321032-0.2261651 0.3651600-0.1928972-0.0995062 0.0000000 0.0762201
-0.1671167-0.3395860 0.0306628 0.3509470-0.1616840 0.2354730 0.0362294-0.2292839
 0.1131930 0.0967884-0.0455773
  Eigenvector # 16:
 0.1379820-0.5972865-0.4735882 0.0822425 0.1323319-0.0646374 0.0000000-0.1431975
-0.0847295 0.3299685 0.3502663 0.2267723 0.0272297 0.1725664-0.0113280-0.1333967
 0.1074505-0.0280279-0.0044346
  Eigenvector # 17:
 0.1166024-0.0164412-0.1733572 0.3705589 0.2593002 0.4970473 0.0000000-0.4228653
-0.3369802-0.0825765-0.3311877-0.2499684 0.0640409-0.1144986-0.0035997 0.0799230
-0.0157711-0.0907481 0.0319293
  Eigenvector # 18:
 0.2439925-0.2965974-0.2307548-0.1869150 0.2777596 0.1315639 0.0000000 0.4469154
 0.3029971-0.3029227-0.4095125 0.0114584-0.2763653-0.0072799-0.1964786 0.0089783
 0.0547022-0.0242386-0.0048618
  Eigenvector # 19:
-0.2095669-0.2325590 0.1997833-0.3831330 0.1946646 0.0174723 0.0000000-0.0729067
-0.5300231-0.5323791 0.1063913 0.1701837 0.0095601 0.1570712 0.1087532-0.1132540
-0.0033458 0.1274433-0.0384163
  @NEXTDAV-I, Current subspace eigenvalues: 
    0.231333    0.276978    0.310783    0.373620    0.467145
    0.507899    0.676157    0.740483    0.831532    0.845607
    0.898890    0.968425    0.997799    1.066805    1.145132
    1.153571    1.259182    1.332764    1.391526
  Imaginary part 
    0.000000    0.000000    0.000000    0.000000    0.000000
    0.000000    0.000000    0.000000    0.000000    0.000000
    0.000000    0.000000    0.000000    0.000000    0.000000
    0.000000    0.000000    0.000000    0.000000
 19  19  0.2769776421D+00  0.7536944930D+01  0.9999999961D+00  0.1641180888D-04
  checksum of h*r->r1aa   0.130157392203543     
  checksum of h*r->r1bb   0.000000000000000E+000
  checksum of h*r->r2    1.00244153752177     
  @NEXTDAV-I, Current subspace Hamiltonian: 

                 COLUMN   1       COLUMN   2       COLUMN   3       COLUMN   4
 ROW   1      1.15829614281    0.05074022679    0.19468883095   -0.00077111677
 ROW   2      0.05020840327    1.03730226110    0.06552334064   -0.10559451889
 ROW   3      0.19483114586    0.06549102336    1.06492350781    0.14232538215
 ROW   4     -0.00039854631   -0.10611203128    0.14171811981    0.88697127051
 ROW   5      0.05411886682    0.01409275818    0.13319541804   -0.21193218317
 ROW   6     -0.02010399200    0.06023045139   -0.08008451274   -0.03851176477
 ROW   7     -0.00290673167    0.01539878580   -0.00126226741   -0.02120286377
 ROW   8     -0.00000024350    0.00000003410    0.00000000541    0.00000000062
 ROW   9      0.01194778939    0.03490298980    0.01638055932   -0.11295559441
 ROW  10     -0.00386545362    0.04049383304    0.00918894682    0.00391083079
 ROW  11     -0.01817596096    0.02807619446    0.02864672591   -0.04686967786
 ROW  12     -0.00963095090   -0.04977378058    0.02276562169    0.01869153456
 ROW  13     -0.01297992204    0.01381206088    0.00286387484   -0.03734486944
 ROW  14     -0.01711096701    0.00140222546    0.00308384906    0.04650315765
 ROW  15     -0.01067122781    0.03916091783   -0.04093434575    0.03715964463
 ROW  16     -0.02608319825   -0.05167567221    0.03180129560    0.00374541674
 ROW  17      0.02225135254   -0.00291610299    0.01399457553    0.03047279538
 ROW  18     -0.00830235316    0.02025719675   -0.01167132208   -0.05478349871
 ROW  19     -0.00222380052   -0.02183701546   -0.00783314707    0.06744494657
 ROW  20     -0.00013749913    0.00408656927    0.00238884799   -0.01198333671

                 COLUMN   5       COLUMN   6       COLUMN   7       COLUMN   8
 ROW   1      0.05327025146   -0.02090021248   -0.00312795431   -0.00000029107
 ROW   2      0.01427175370    0.06008669649    0.01530931718    0.00000003920
 ROW   3      0.13350886539   -0.07976755589   -0.00206389879    0.00000000635
 ROW   4     -0.21126780597   -0.03852386575   -0.02028966758    0.00000000071
 ROW   5      0.95480315338   -0.14247677651    0.11102726915   -0.00000000022
 ROW   6     -0.14287951269    0.89745480008    0.22960501981    0.00000000001
 ROW   7      0.11143818599    0.22907262541    0.81976151816   -0.00000000002
 ROW   8     -0.00000000020    0.00000000000   -0.00000000002    0.31078324817
 ROW   9     -0.14801934919   -0.02510689596   -0.06423417374    0.00000000028
 ROW  10      0.05857899447   -0.01891451476   -0.01532238715    0.00000000007
 ROW  11      0.06653279664   -0.04998097458   -0.07610519872   -0.00000000003
 ROW  12     -0.03341900536   -0.00864515237   -0.11029479482   -0.00000000001
 ROW  13     -0.03886178940    0.01121706799   -0.10470954839    0.00000000000
 ROW  14      0.01298197613   -0.05062469133    0.08049871289    0.00000000000
 ROW  15     -0.00605314746    0.00031437610    0.02606903964    0.00000000000
 ROW  16      0.00006852026   -0.00413088396   -0.01642809684   -0.00000000001
 ROW  17     -0.01179265109    0.00322946367    0.03974733988    0.00000000000
 ROW  18      0.01130754939   -0.00216551437    0.00105149674    0.00000000001
 ROW  19      0.00134188002    0.00641868611   -0.05448716252    0.00000000000
 ROW  20     -0.00205292314   -0.00318420105    0.00782281260    0.00000000000

                 COLUMN   9       COLUMN  10       COLUMN  11       COLUMN  12
 ROW   1      0.01211739588   -0.00415365712   -0.01874583992   -0.00986718771
 ROW   2      0.03412350918    0.04069421876    0.02830738625   -0.05043230635
 ROW   3      0.01700989610    0.00867482611    0.02902784416    0.02303016113
 ROW   4     -0.11266224122    0.00467381920   -0.04597194271    0.01841025601
 ROW   5     -0.14801488923    0.05892971621    0.06652234593   -0.03343694193
 ROW   6     -0.02501821235   -0.01904013488   -0.04988698555   -0.00939339520
 ROW   7     -0.06419930825   -0.01579548236   -0.07595775737   -0.11015428346
 ROW   8      0.00000000028    0.00000000007   -0.00000000003   -0.00000000001
 ROW   9      0.99195874700    0.18399396939   -0.10798793061   -0.03286491750
 ROW  10      0.18407737863    1.09860184018    0.15740895934   -0.05524665065
 ROW  11     -0.10709142005    0.15760539908    1.08965066840    0.09479123378
 ROW  12     -0.03333905307   -0.05569499643    0.09499593658    0.99321684597
 ROW  13     -0.00162379676   -0.01381673403   -0.09261500045    0.11511802717
 ROW  14     -0.00987589500   -0.05360754076    0.03333802971    0.15272591531
 ROW  15     -0.00247340602   -0.01175294003   -0.02640901634    0.04445880646
 ROW  16     -0.02516348206   -0.05738762647   -0.00053479068    0.00914169453
 ROW  17     -0.00887838822    0.03866678977    0.04028970272   -0.03728675390
 ROW  18      0.01847172668   -0.01340728005    0.00669739328    0.00581649849
 ROW  19     -0.00110032851   -0.00438881225   -0.09128446828    0.06898865858
 ROW  20     -0.01019172312    0.00202577631    0.02976898641   -0.03125899517

                 COLUMN  13       COLUMN  14       COLUMN  15       COLUMN  16
 ROW   1     -0.01223380926   -0.01672320377   -0.01096449351   -0.02668443760
 ROW   2      0.01363823215    0.00085660257    0.03926956324   -0.05179237760
 ROW   3      0.00260364777    0.00325959079   -0.04084640118    0.03194598874
 ROW   4     -0.03777748894    0.04588117363    0.03735446335    0.00408312577
 ROW   5     -0.03943717356    0.01355990125   -0.00592153184    0.00058960429
 ROW   6      0.01230983680   -0.04983132258   -0.00038405029   -0.00508342583
 ROW   7     -0.10594669887    0.08078733158    0.02644434362   -0.01585965878
 ROW   8      0.00000000000    0.00000000000    0.00000000000   -0.00000000001
 ROW   9     -0.00075136973   -0.00854329633   -0.00372482146   -0.02590011239
 ROW  10     -0.01383883492   -0.05363115176   -0.01161396888   -0.05731788131
 ROW  11     -0.09211968466    0.03377651520   -0.02606255584    0.00052177541
 ROW  12      0.11527937849    0.15323133090    0.04350947777    0.00845895105
 ROW  13      0.87609588569   -0.09424169738    0.12210520423    0.03814772797
 ROW  14     -0.09279851146    0.84304981966    0.00856716429    0.12401046284
 ROW  15      0.12158614155    0.00895530786    0.84413618526    0.00071465111
 ROW  16      0.03825662984    0.12476074933    0.00046819070    0.82088524027
 ROW  17     -0.03199642447    0.04212856148   -0.10055562590   -0.09763852986
 ROW  18      0.03790128478   -0.02914712470   -0.02616084013   -0.10828257052
 ROW  19     -0.08422383118   -0.08014565437    0.12276111632    0.04997007537
 ROW  20      0.01903787723    0.03330213560   -0.02818575465    0.00423070454

                 COLUMN  17       COLUMN  18       COLUMN  19       COLUMN  20
 ROW   1      0.02235861925   -0.00847489072   -0.00335061076    0.00151271403
 ROW   2     -0.00247247177    0.02129449890   -0.02199658454    0.00451448862
 ROW   3      0.01353540384   -0.01204121019   -0.00820384178    0.00263316619
 ROW   4      0.03095304717   -0.05506977336    0.06855862612   -0.01367321648
 ROW   5     -0.01180922307    0.01135835119    0.00113886851   -0.00418214041
 ROW   6      0.00235957631   -0.00280853652    0.00598433732   -0.00341612634
 ROW   7      0.03952512657   -0.00011769120   -0.05474591960    0.00589234034
 ROW   8      0.00000000000    0.00000000001    0.00000000000    0.00000000000
 ROW   9     -0.00884612430    0.01785506144   -0.00131934251   -0.00579280827
 ROW  10      0.03853407328   -0.01358262019   -0.00450552392    0.00269767456
 ROW  11      0.04035012288    0.00543321365   -0.09127699839    0.02599360881
 ROW  12     -0.03729012210    0.00499698722    0.06952624798   -0.02682940581
 ROW  13     -0.03163226898    0.03960898351   -0.08388726155    0.01784339246
 ROW  14      0.04243162587   -0.02743070129   -0.08012676754    0.03543785672
 ROW  15     -0.10105920742   -0.02669474782    0.12367385978   -0.02748800063
 ROW  16     -0.09813040062   -0.10864760747    0.05080055627    0.00631460980
 ROW  17      0.62716833758   -0.21842797630   -0.13976151397    0.05343314925
 ROW  18     -0.21741034517    0.46691996946   -0.03877175446   -0.03481032192
 ROW  19     -0.13885150350   -0.03670889319    0.55109064852   -0.09482472250
 ROW  20      0.05548289558   -0.03048738110   -0.09652634853    0.30085756696
   Eigenvalue        Real Part            Imaginary Part
          1             0.23133288387615       0.00000000000000
          2             0.27697765855974       0.00000000000000
          3             0.31078324817373       0.00000000000000
          4             0.37361993808764       0.00000000000000
          5             0.46697432972791       0.00000000000000
          6             0.50684347304860       0.00000000000000
          7             0.67407428952012       0.00000000000000
          8             0.73967677371386       0.00000000000000
          9             0.82905914870316       0.00000000000000
         10             0.84174560578484       0.00000000000000
         11             0.88941965851935       0.00000000000000
         12             0.95289726685889       0.00000000000000
         13             0.98759099183949       0.00000000000000
         14             0.99804970394409       0.00000000000000
         15             1.07390711982396       0.00000000000000
         16             1.14925716917835       0.00000000000000
         17             1.25579546326221       0.00000000000000
         18             1.29562910225197       0.00000000000000
         19             1.34327943118207       0.00000000000000
         20             1.43701440091247       0.00000000000000
  Eigenvector #  1:
 0.0000001 0.0000000 0.0000003-0.0000022-0.0000022-0.0000009 0.0000001 0.0000000
-0.0000123 0.0000502-0.0002704 0.0012549-0.0054095-0.0186834 0.0571942 0.1714779
 0.4897738 0.6553364 0.3554302 0.4138471
  Eigenvector #  2:
-0.0000142-0.0000815 0.0004036-0.0018521-0.0048225-0.0163054 0.0507775 0.0000000
 0.0128026-0.0075379 0.0202101 0.0010241 0.0437518 0.0156361-0.0882613-0.1720577
-0.3799197-0.3779368 0.1420246 0.8059776
  Eigenvector #  3:
 0.0000004-0.0000001-0.0000001 0.0000000 0.0000000 0.0000000 0.0000000 1.0000000
 0.0000000 0.0000000 0.0000000 0.0000000 0.0000000 0.0000000 0.0000000 0.0000000
 0.0000000 0.0000000 0.0000000 0.0000000
  Eigenvector #  4:
-0.0002154-0.0204066 0.0495798-0.1573512-0.1472564-0.1055275 0.1790910 0.0000000
-0.0289431-0.0205352 0.1567331-0.1997328 0.3539765 0.2771831-0.2511822-0.2035935
 0.0454645-0.1476497 0.6623254-0.2693306
  Eigenvector #  5:
 0.0178245 0.0282441-0.1831086 0.4329472 0.5199448 0.3992168-0.3596202 0.0000000
 0.2847025-0.1590920 0.1059082-0.1474336 0.1449663 0.1846546-0.0914878-0.0884586
 0.0006178 0.0022841 0.0881903-0.0214386
  Eigenvector #  6:
 0.0427532 0.1496412-0.2452976 0.3651082 0.1306570-0.3104938 0.5271273 0.0000000
 0.2819275-0.1455982 0.1600258 0.1998920 0.1399983-0.3646588-0.1914781 0.1824387
 0.0022944-0.0215268 0.0140733-0.0390758
  Eigenvector #  7:
-0.0717427 0.0172227 0.0560590-0.1749876 0.1093226 0.1143213-0.1381274 0.0000001
 0.1064330-0.1297228-0.0072982 0.1802212-0.1957508-0.3431496 0.1848985 0.0983938
 0.5091774-0.5694545 0.2686828-0.0182974
  Eigenvector #  8:
-0.0502265-0.2539877 0.1901029-0.0707866-0.0876512-0.0627290 0.1987973 0.0000000
 0.3563333-0.3535234 0.3725827-0.2582095 0.0829142 0.0738970 0.5225094-0.2223262
 0.0537858 0.0511030-0.1986068 0.0592264
  Eigenvector #  9:
 0.1213949 0.1531905-0.3377077 0.1732036 0.0691642-0.3545869 0.0211704-0.0000001
-0.1955796 0.1742452-0.2303846-0.1005053 0.2623177 0.3190857 0.2858730-0.1757686
 0.4075078-0.2258013-0.2102497 0.1024550
  Eigenvector # 10:
 0.1286766-0.0315924-0.0382702-0.0821430-0.1394337 0.1074554-0.1028355-0.0000001
-0.0660567 0.0430932 0.2066620-0.4005328 0.3414325-0.0363988-0.0109711 0.7442274
-0.0076374-0.1711719-0.1233263 0.0827594
  Eigenvector # 11:
-0.2429771-0.2319576 0.3463166-0.0755326 0.1035819 0.2358154 0.1443089 0.0000001
-0.0040245 0.0924446-0.1407628 0.2008241 0.5403205-0.0874929-0.3126048-0.1316165
 0.2720401-0.0164769-0.3292200 0.0913158
  Eigenvector # 12:
 0.4206047-0.5297242-0.2540552-0.0841061 0.1505071 0.2932929 0.2780641-0.0000002
 0.0021713 0.3521166-0.0006679 0.2452894 0.0290094 0.0227183 0.2563205 0.0386245
-0.0979304-0.0029980 0.1416282-0.0500747
  Eigenvector # 13:
 0.4529515-0.1732516-0.3778377-0.2980957-0.2030863-0.0399991-0.2347697-0.0000002
 0.0630249-0.3302682 0.1495989 0.0859528-0.0268613-0.0589748-0.4089392-0.2044384
 0.1722466 0.0393388-0.2119075 0.0554222
  Eigenvector # 14:
 0.0860880-0.0089793-0.0577348 0.2476902-0.1294048 0.0890636-0.1650824 0.0000000
-0.4931662 0.0161559 0.2458217-0.1853984 0.1906140-0.5987972 0.0986686-0.3550415
-0.0074684 0.0693920 0.0412036-0.0192120
  Eigenvector # 15:
-0.1386561-0.4865455-0.0337150-0.1410162 0.4051950-0.4919632-0.1759534 0.0000000
 0.0219955-0.0231327-0.2882632-0.3339305-0.0053530-0.2506738-0.0836252 0.0287316
-0.1051954 0.0473995 0.0746511-0.0257091
  Eigenvector # 16:
 0.0248951 0.3840040-0.1085052-0.4976907 0.3113660-0.0365864-0.1179306 0.0000000
-0.0418924-0.1841294-0.0143622 0.2768213 0.4184252-0.0977477 0.2945990 0.0152380
-0.2594297 0.1580848 0.0499712-0.0362644
  Eigenvector # 17:
-0.1441238 0.0582530-0.1643997-0.2117648 0.3713135 0.2423071 0.4638366 0.0000000
-0.4680984-0.2784951 0.0909121-0.2556917-0.2692105 0.1081656-0.1257857 0.0053618
 0.0885614-0.0161135-0.1106396 0.0393037
  Eigenvector # 18:
 0.4661951 0.1993568 0.2165502 0.0206489-0.0715723 0.2167307 0.2083138-0.0000001
 0.1587711-0.2081618-0.6147357-0.3336124 0.0392656-0.1781934 0.0339840-0.0684872
-0.0219957 0.0145213 0.0460347-0.0204525
  Eigenvector # 19:
-0.2366168 0.2325279-0.3378281-0.3026242-0.0545847 0.1673388 0.0762056 0.0000001
 0.4013524 0.5102314 0.0457998-0.3422162-0.0566144-0.2177091-0.0641055-0.2023515
 0.0478619 0.0514699-0.0776684 0.0136102
  Eigenvector # 20:
 0.4629642 0.2065023 0.4771543-0.0893062 0.3928104-0.2152372-0.0105691-0.0000001
 0.0089289 0.3317925 0.3638351-0.0711588-0.1357776 0.0057697-0.1300065-0.0718136
 0.0976300-0.0108823-0.0897958 0.0279952
  @NEXTDAV-I, Current subspace eigenvalues: 
    0.231333    0.276978    0.310783    0.373620    0.466974
    0.506843    0.674074    0.739677    0.829059    0.841746
    0.889420    0.952897    0.987591    0.998050    1.073907
    1.149257    1.255795    1.295629    1.343279    1.437014
  Imaginary part 
    0.000000    0.000000    0.000000    0.000000    0.000000
    0.000000    0.000000    0.000000    0.000000    0.000000
    0.000000    0.000000    0.000000    0.000000    0.000000
    0.000000    0.000000    0.000000    0.000000    0.000000
 20  20  0.2769776586D+00  0.7536945377D+01  0.9999999999D+00  0.2868030240D-05
  Converged eigenvalue:   0.276977658559743       a.u.
   Total EOMEE-CCSD electronic energy     -288.641210877844344 a.u.
  Converged eigenvector 
--------------------------------------------------------------------------------
    I    j    A    b
--------------------------------------------------------------------------------
    2    0   25    0  -0.5661889204 AA  
    3    0   22    0  -0.5661889203 AA  
    2    3    5   17  -0.4475874463 AAAA
    2    3    5   18  -0.1559979568 AAAA
    3    1   19   10   0.1533175521 ABAB
    2    1   19   13   0.1533175521 ABAB
    2    1   19   14  -0.1059047499 ABAB
    3    1   19   11  -0.1059047498 ABAB
    2    3    8   17  -0.1005936355 AAAA
    2    0   26    0  -0.0655982682 AA  
    3    0   23    0  -0.0655982682 AA  
    2    1   20   13   0.0603465216 ABAB
    3    1   20   10   0.0603465216 ABAB
    2    3    5   19   0.0574537340 AAAA
    1    1   22   14   0.0501651929 ABAB
    1    1   25   11   0.0501651929 ABAB
    1    1   22   13  -0.0458986923 ABAB
    1    1   25   10  -0.0458986923 ABAB
    3    1   20   11  -0.0360091970 ABAB
    2    1   20   14  -0.0360091970 ABAB
    2    1   21   13  -0.0327320054 ABAB
    3    1   21   10  -0.0327320054 ABAB
    3    1   22    7   0.0294917953 ABAB
    2    1   25    7  -0.0294917953 ABAB
    1    1   25   12  -0.0291082295 ABAB
    1    1   22   15  -0.0291082295 ABAB
    3    1   22    4   0.0288035023 ABAB
    2    1   25    4  -0.0288035023 ABAB
    2    3    8   18  -0.0259744989 AAAA
    2    1   25    2   0.0236799818 ABAB
--------------------------------------------------------------------------------

  Eigenvector is saved on CCRE_8_2  

   Expansion vector space truncated to dimension  12.
  @TRNSPACE-F, Using in-core truncation algorithm.
  @TRNSPACE-F, Using in-core truncation algorithm.
  Solution of   2 roots required   20 iterations.
  @CHECKOUT-I, Total execution time (CPU/WALL):        0.84/       1.34 seconds.
--executable xvee finished with status     0 in        2.22 seconds (walltime).
  The final electronic energy is      -288.641210877844344 a.u. 
  This computation required                           17.25 seconds (walltime).
--- SharcNET Job Epilogue ---
Job completed successfully.
               jobid: 1540108
               resid: 3019222
         exit status: 0
      allocated time: 18.2888
           user time: 1.03
         system time: 0.5
peak rss=205303808; peak vsz=205303808 (bytes)
atime=18.2888; utime=1.03; stime=0.5; exit=0
