# LAMMPS data file written by OVITO
51227 atoms
4 atom types
-99.9229966 99.9229966 xlo xhi
-24.7299996 184.4960022 ylo yhi
-64.0579987 64.0579987 zlo zhi

Atoms # charge

1 1 0.0 -28.5960007 21.7590008 -36.2109985
2 2 0.0 -29.198 20.7029991 -35.4169998
3 2 0.0 -30.5 21.1270008 -34.7589989
4 3 0.0 -31.0979996 22.1350002 -35.1349983
5 1 0.0 -30.9379998 20.3530007 -33.7709999
6 2 0.0 -32.1980019 20.6219998 -33.0859985
7 2 0.0 -32.1040001 21.8129998 -32.144001
8 3 0.0 -31.0300007 22.1490002 -31.6480007
9 2 0.0 -32.6640015 19.3899994 -32.3139992
10 3 0.0 -33.1119995 18.3829994 -33.2029991
11 1 0.0 -33.2449989 22.4440003 -31.9009992
12 2 0.0 -33.3230019 23.5540009 -30.969
13 2 0.0 -34.5800019 23.4400006 -30.1140003
14 3 0.0 -35.5040016 22.7010002 -30.4500008
15 2 0.0 -33.2919998 -23.9659996 -31.7189999
16 2 0.0 -32.0289993 -23.7520008 -32.4920006
17 1 0.0 -30.8519994 -23.368 -31.8939992
18 2 0.0 -31.7600003 -23.8910008 -33.8120003
19 2 0.0 -29.9060002 -23.2719994 -32.8149987
20 1 0.0 -30.4300003 -23.5849991 -33.9840012
21 1 0.0 -34.6030007 -24.6760006 -29.007
22 2 0.0 -35.7330017 -24.7119999 -28.0930004
23 2 0.0 -35.9780006 -23.3379994 -27.5039997
24 3 0.0 -35.0559998 -22.5380001 -27.3729992
25 2 0.0 -35.4720001 23.1359997 -26.962
26 3 0.0 -34.3440018 23.5200005 -26.1900005
27 1 0.0 -37.2330017 -23.0620003 -27.1720009
28 2 0.0 -37.5589981 -21.9319992 -26.3169994
29 2 0.0 -38.2529984 -22.4990006 -25.0909996
30 3 0.0 -39.1679993 -23.3139992 -25.2159996
31 2 0.0 -38.4609986 -20.9069996 -27.0160007
32 2 0.0 -38.75 -19.691 -26.1380005
33 4 0.0 -39.7330017 -18.3670006 -26.863001
34 2 0.0 -41.3230019 -19.1700001 -27.0629997
35 1 0.0 -37.8079987 -22.0809994 -23.9099998
36 2 0.0 -38.3600006 -22.5919991 -22.6590004
37 2 0.0 -38.5999985 -21.474001 -21.6660004
38 3 0.0 -37.7649994 -20.5820008 -21.5049992
39 2 0.0 -37.4039993 -23.5970001 -22.0200005
40 2 0.0 -37.1300011 24.0189991 -22.8500004
41 2 0.0 -38.1409988 22.9309998 -22.5709992
42 1 0.0 -37.658001 21.6450005 -23.0629997
43 2 0.0 -37.8190003 21.2180004 -24.3110008
44 1 0.0 -38.4609986 21.9769994 -25.1959992
45 1 0.0 -37.3409996 20.0340004 -24.6749993
46 1 0.0 -39.7439995 -21.533001 -20.9969998
47 2 0.0 -40.026001 -20.6359997 -19.8929996
48 2 0.0 -40.1240006 -21.448 -18.6019993
49 3 0.0 -40.744999 -22.5049992 -18.5709992
50 2 0.0 -41.3279991 -19.8710004 -20.1420002
51 2 0.0 -41.1990013 -18.7199993 -21.1070004
52 2 0.0 -40.5419998 -17.5529995 -20.7399998
53 2 0.0 -41.7430001 -18.7940007 -22.3899994
54 2 0.0 -40.4249993 -16.4890003 -21.6170006
55 2 0.0 -41.6269989 -17.7310009 -23.2779999
56 2 0.0 -40.9700012 -16.5799999 -22.8850002
57 3 0.0 -40.8470002 -15.5150004 -23.7609997
58 1 0.0 -39.5 -20.9529992 -17.5419998
59 2 0.0 -39.5219994 -21.6340008 -16.2560005
60 2 0.0 -40.1139984 -20.6930008 -15.2119999
61 3 0.0 -39.7019997 -19.5419998 -15.1090002
62 2 0.0 -38.105999 -22.0620003 -15.8509998
63 2 0.0 -37.4119988 -22.9300004 -16.8719998
64 2 0.0 -37.4300003 -24.3099995 -16.7579994
65 2 0.0 -36.737999 -22.3619995 -17.941
66 2 0.0 -36.7919998 23.7329998 -17.7040005
67 2 0.0 -36.0940018 -23.158001 -18.8840008
68 2 0.0 -36.125 -24.5370007 -18.7600003
69 1 0.0 -41.0890007 -21.1800003 -14.4519997
70 2 0.0 -41.7550011 -20.3640003 -13.441
71 2 0.0 -41.6759987 -21.0209999 -12.0670004
72 3 0.0 -41.9440002 -22.2169991 -11.9200002
73 2 0.0 -43.2229996 -20.1310005 -13.8149996
74 2 0.0 -43.4249993 -19.6480007 -15.2259998
75 2 0.0 -43.5499993 -18.2950001 -15.5
76 2 0.0 -43.4930001 -20.5489998 -16.2770004
77 2 0.0 -43.737999 -17.8500004 -16.7970009
78 2 0.0 -43.6790009 -20.1130009 -17.5750008
79 2 0.0 -43.8030014 -18.7649994 -17.8379994
80 1 0.0 -41.3129997 -20.2390003 -11.0570002
81 2 0.0 -41.2719994 -20.7560005 -9.6960001
82 2 0.0 -42.0610008 -19.8670006 -8.7519999
83 3 0.0 -41.8240013 -18.6599999 -8.684
84 2 0.0 -39.8339997 -20.8649998 -9.1630001
85 3 0.0 -39.0579987 -21.7099991 -10.0240002
86 2 0.0 -39.8440018 -21.448 -7.7470002
87 1 0.0 -42.9980012 -20.4650002 -8.026
88 2 0.0 -43.7799988 -19.7320004 -7.0370002
89 2 0.0 -43.6640015 -20.4090004 -5.671
90 3 0.0 -43.9059982 -21.6140003 -5.5430002
91 2 0.0 -45.243 -19.6469994 -7.474
92 3 0.0 -45.9000016 -18.5620003 -6.8379998
93 1 0.0 -43.2809982 -19.6369992 -4.658
94 2 0.0 -43.0169983 -20.1819992 -3.329
95 2 0.0 -43.8100014 -19.4449997 -2.2590001
96 3 0.0 -43.6010018 -18.2549992 -2.0380001
97 2 0.0 -41.5229988 -20.0599995 -2.974
98 2 0.0 -41.2330017 -20.7049999 -1.612
99 2 0.0 -40.6669998 -20.6779995 -4.0650001
100 1 0.0 -44.7130013 -20.1550007 -1.591
101 2 0.0 -45.4869995 -19.566 -0.503
102 2 0.0 -44.5830002 -19.1739998 0.6600001
103 3 0.0 -43.5800019 -19.8390008 0.934
104 2 0.0 -46.5719986 -20.5319996 -0.02
105 3 0.0 -46.0019989 -21.7110005 0.536
106 1 0.0 -44.9459992 -18.0900002 1.336
107 2 0.0 -44.1879997 -17.6040001 2.4820001
108 2 0.0 -45.1110001 -17.4160004 3.6870001
109 3 0.0 -45.612999 -16.3199997 3.9300002
110 2 0.0 -43.4430008 -16.3099995 2.1199999
111 2 0.0 -42.4020004 -16.5380001 1.018
112 2 0.0 -41.4990006 -15.3409996 0.765
113 1 0.0 -42.1539993 -14.3339996 -0.057
114 2 0.0 -41.5169983 -13.3610001 -0.701
115 1 0.0 -40.1980019 -13.2629995 -0.63
116 1 0.0 -42.2050018 -12.4860001 -1.423
117 1 0.0 -45.3479996 -18.507 4.4310003
118 2 0.0 -46.2439995 -18.5639992 5.5939999
119 2 0.0 -45.9729996 -17.4370003 6.5809999
120 3 0.0 -44.8460008 -17.2889996 7.0489998
121 2 0.0 -45.8950006 -19.9099998 6.2379999
122 2 0.0 -45.4049988 -20.7430001 5.1110001
123 2 0.0 -44.6980019 -19.8029995 4.171
124 1 0.0 -47.0009995 -16.6529999 6.882
125 2 0.0 -46.876999 -15.5439997 7.8109999
126 2 0.0 -45.9350014 -14.4540005 7.3410001
127 3 0.0 -45.5600014 -13.5780001 8.118
128 1 0.0 -45.5569992 -14.4989996 6.0650001
129 2 0.0 -44.6160012 -13.526 5.5120001
130 2 0.0 -45.0970001 -12.896 4.1989999
131 3 0.0 -44.2879982 -12.4519997 3.382
132 2 0.0 -43.2290001 -14.1590004 5.3280001
133 2 0.0 -42.4840012 -14.4119997 6.638
134 2 0.0 -41.2319985 -15.2679997 6.4400001
135 1 0.0 -40.389 -14.7860003 5.3460002
136 2 0.0 -40.0460014 -15.5080004 4.2800002
137 1 0.0 -40.4609986 -16.764 4.1539998
138 1 0.0 -39.276001 -14.9750004 3.339
139 1 0.0 -46.4119988 -12.8579998 4.0019999
140 2 0.0 -46.9900018 -12.1549997 2.872
141 2 0.0 -47.0719986 -12.9449998 1.576
142 3 0.0 -47.2249985 -14.165 1.583
143 1 0.0 -46.9620018 -12.2329998 0.458
144 2 0.0 -47.1870003 -12.8039999 -0.869
145 2 0.0 -46.0670013 -13.7379999 -1.3250001
146 3 0.0 -44.9119988 -13.5799999 -0.929
147 2 0.0 -47.3740006 -11.684 -1.893
148 2 0.0 -48.5169983 -10.7399998 -1.56
149 2 0.0 -49.8650018 -11.3959999 -1.737
150 3 0.0 -50.0449982 -12.0930004 -2.7560001
151 3 0.0 -50.7439995 -11.2139998 -0.869
152 1 0.0 -46.4090004 -14.7119999 -2.1800001
153 2 0.0 -45.4179993 -15.6859999 -2.6500001
154 2 0.0 -44.2890015 -15.0209999 -3.422
155 3 0.0 -44.4939995 -13.9750004 -4.033
156 2 0.0 -46.2249985 -16.5830002 -3.5980001
157 2 0.0 -47.6539994 -16.3519993 -3.2520001
158 2 0.0 -47.737999 -14.9399996 -2.773
159 1 0.0 -43.1040001 -15.6190005 -3.3740001
160 2 0.0 -42.0180016 -15.2279997 -4.2620001
161 2 0.0 -42.3440018 -15.7910004 -5.6370001
162 3 0.0 -42.7190018 -16.9580002 -5.7579999
163 2 0.0 -40.6870003 -15.8020001 -3.764
164 2 0.0 -39.480999 -15.5220003 -4.6630001
165 2 0.0 -39.0149994 -14.085 -4.5219999
166 1 0.0 -37.764 -13.816 -5.2290001
167 2 0.0 -36.5519982 -14.0340004 -4.7249999
168 1 0.0 -36.4169998 -14.5410004 -3.5079999
169 1 0.0 -35.4710007 -13.7510004 -5.4419999
170 1 0.0 -42.2249985 -14.9650002 -6.6700001
171 2 0.0 -42.4300003 -15.4390002 -8.0349998
172 2 0.0 -41.2610016 -15.052 -8.9239998
173 3 0.0 -40.9690018 -13.8710004 -9.1049995
174 2 0.0 -43.7340012 -14.8970004 -8.6260004
175 2 0.0 -43.9959984 -15.3570004 -10.0369997
176 2 0.0 -44.4760018 -16.6310005 -10.2869997
177 2 0.0 -43.7599983 -14.5170002 -11.1099997
178 2 0.0 -44.7169991 -17.0610008 -11.5830002
179 2 0.0 -43.9990006 -14.941 -12.4119997
180 2 0.0 -44.4790001 -16.2140007 -12.6470003
181 1 0.0 -40.5950012 -16.0620003 -9.4700003
182 2 0.0 -39.4889984 -15.8500004 -10.3920002
183 2 0.0 -39.7770005 -16.5510006 -11.7200003
184 3 0.0 -40.1409988 -17.7310009 -11.7489996
185 2 0.0 -38.158001 -16.3530007 -9.7930002
186 2 0.0 -37.8349991 -15.5690003 -8.5120001
187 2 0.0 -37.0309982 -16.2019997 -10.8009997
188 2 0.0 -36.6839981 -16.1270008 -7.6950002
189 1 0.0 -39.6339989 -15.8120003 -12.816
190 2 0.0 -39.8370018 -16.3700009 -14.1479998
191 2 0.0 -38.6500016 -16.0389996 -15.0340004
192 3 0.0 -38.1570015 -14.9119998 -15.026
193 2 0.0 -41.1150017 -15.8319998 -14.7659998
194 1 0.0 -38.1870003 -17.0289993 -15.7910004
195 2 0.0 -37.0810013 -16.823 -16.7140007
196 2 0.0 -37.3849983 -17.474001 -18.0620003
197 3 0.0 -38.0610008 -18.5 -18.1280003
198 2 0.0 -35.7509995 -17.3799992 -16.158001
199 2 0.0 -35.3759995 -16.6790009 -14.8509998
200 2 0.0 -35.8380013 -18.8850002 -15.9569998
201 1 0.0 -36.8909988 -16.8640004 -19.1329994
202 2 0.0 -37.0250015 -17.4319992 -20.4650002
203 2 0.0 -35.6790009 -17.7849999 -21.0669994
204 3 0.0 -34.7140007 -17.0349998 -20.9389992
205 1 0.0 -35.6119995 -18.9389992 -21.7189999
206 2 0.0 -34.3870011 -19.382 -22.3700009
207 2 0.0 -34.6419983 -19.6739998 -23.8430004
208 3 0.0 -35.7089997 -20.1700001 -24.2080002
209 2 0.0 -33.8549996 -20.6620007 -21.7159996
210 2 0.0 -33.1010017 -20.4510002 -20.4220009
211 2 0.0 -33.7610016 -20.4659996 -19.1989994
212 2 0.0 -31.7280007 -20.2549992 -20.4230004
213 2 0.0 -33.0719986 -20.2870007 -18.0109997
214 2 0.0 -31.0300007 -20.0680008 -19.243
215 2 0.0 -31.7059994 -20.0839996 -18.0400009
216 3 0.0 -31.0149994 -19.8980008 -16.8649998
217 1 0.0 -33.6640015 -19.3409996 -24.6800003
218 2 0.0 -33.5579987 -19.9200002 -26.0109997
219 2 0.0 -32.3320007 -20.8150006 -25.9449998
220 3 0.0 -31.2399998 -20.3439999 -25.6340008
221 2 0.0 -33.362999 -18.8500004 -27.1000004
222 2 0.0 -32.9580002 -19.5 -28.4120007
223 2 0.0 -34.6310005 -18.0310001 -27.2810001
224 1 0.0 -32.5120011 -22.1019993 -26.2169991
225 2 0.0 -31.4540005 -23.0750008 -25.988001
226 2 0.0 -30.9470006 -22.8999996 -24.5510006
227 3 0.0 -31.7380009 -22.9430008 -23.6130009
228 2 0.0 -30.3279991 -22.9209996 -27.0209999
229 2 0.0 -30.8190003 -23.1089993 -28.4570008
230 3 0.0 -31.8360005 -23.8099995 -28.6660004
231 3 0.0 -30.1849995 -22.5599995 -29.3859997
232 1 0.0 -29.6480007 -22.6790009 -24.3740006
233 2 0.0 -29.0979996 -22.4769993 -23.0349998
234 2 0.0 -28.7280007 -21.0209999 -22.7679997
235 3 0.0 -27.8169995 -20.7339993 -21.9909992
236 2 0.0 -27.8899994 -23.3829994 -22.8080006
237 2 0.0 -28.25 23.9950008 -22.8789998
238 3 0.0 -29.2259998 23.5960007 -22.2140007
239 3 0.0 -27.566 23.2399998 -23.6009999
240 1 0.0 -29.4559994 -20.1049995 -23.3980007
241 2 0.0 -29.2129994 -18.6790009 -23.2250004
242 2 0.0 -30.4659996 -17.9960004 -22.6809998
243 3 0.0 -31.5009995 -17.9669992 -23.3430004
244 2 0.0 -28.8010006 -18.0279999 -24.5680008
245 3 0.0 -27.6060009 -18.6550007 -25.0569992
246 2 0.0 -28.5540009 -16.5370007 -24.4050007
247 1 0.0 -30.3850002 -17.4689999 -21.4619999
248 2 0.0 -31.5100003 -16.7549992 -20.8719998
249 2 0.0 -31.6720009 -15.4320002 -21.5939999
250 3 0.0 -30.6830006 -14.8009997 -21.969
251 2 0.0 -31.2789993 -16.4890003 -19.3810005
252 2 0.0 -32.4129982 -15.7060004 -18.7159996
253 2 0.0 -32.0719986 -15.2469998 -17.3099995
254 3 0.0 -30.9330006 -15.3719998 -16.8659992
255 1 0.0 -33.0620003 -14.7060004 -16.6049996
256 1 0.0 -32.9109994 -15.0010004 -21.7929993
257 2 0.0 -33.1269989 -13.7290001 -22.4759999
258 2 0.0 -34.0820007 -12.797 -21.7469998
259 3 0.0 -34.1030006 -11.6009999 -22.0249996
260 2 0.0 -33.5530014 -13.9379998 -23.941
261 2 0.0 -34.9179994 -14.5489998 -24.1100006
262 2 0.0 -35.0999985 -15.9139996 -23.981001
263 2 0.0 -36.0139999 -13.7589998 -24.4239998
264 2 0.0 -36.3499985 -16.4799996 -24.1450005
265 2 0.0 -37.2669983 -14.3199997 -24.5949993
266 2 0.0 -37.4360008 -15.6809998 -24.4549999
267 1 0.0 -34.8689996 -13.3369999 -20.8199997
268 2 0.0 -35.744999 -12.5030003 -19.9969998
269 2 0.0 -35.8540002 -13.0120001 -18.5690003
270 3 0.0 -35.5629998 -14.1730003 -18.2770004
271 2 0.0 -37.1769981 -12.3710003 -20.5750008
272 2 0.0 -37.1739998 -11.5299998 -21.8419992
273 2 0.0 -37.7960015 -13.7449999 -20.8250008
274 1 0.0 -36.2789993 -12.1239996 -17.6809998
275 2 0.0 -36.519001 -12.4829998 -16.2940006
276 2 0.0 -37.5859986 -11.5909996 -15.698
277 3 0.0 -37.7389984 -10.4309998 -16.0919991
278 2 0.0 -35.2290001 -12.389 -15.4680004
279 2 0.0 -34.5569992 -11.0179996 -15.4849997
280 2 0.0 -34.9529992 -10.1499996 -14.2919998
281 1 0.0 -34.2980003 -10.5810004 -13.0579996
282 2 0.0 -34.0760002 -9.7910004 -12.0089998
283 1 0.0 -34.4490013 -8.514 -12.0369997
284 1 0.0 -33.4720001 -10.276 -10.9309998
285 1 0.0 -38.3450012 -12.1619997 -14.7729998
286 2 0.0 -39.1829987 -11.3920002 -13.8690004
287 2 0.0 -38.9770012 -11.9530002 -12.4709997
288 3 0.0 -39.0890007 -13.1610003 -12.2530003
289 2 0.0 -40.6629982 -11.4870005 -14.2449999
290 2 0.0 -41.5750008 -10.7329998 -13.3050003
291 2 0.0 -42.0209999 -9.4600001 -13.6230002
292 2 0.0 -41.973999 -11.2939997 -12.1000004
293 2 0.0 -42.855999 -8.764 -12.7690001
294 2 0.0 -42.8100014 -10.6000004 -11.231
295 2 0.0 -43.2490006 -9.3339996 -11.5649996
296 1 0.0 -38.6629982 -11.0769997 -11.5279999
297 2 0.0 -38.5219994 -11.4750004 -10.1359997
298 2 0.0 -39.4179993 -10.5780001 -9.3009997
299 3 0.0 -39.2890015 -9.356 -9.3470001
300 2 0.0 -37.0680008 -11.3479996 -9.6890002
301 2 0.0 -36.8269997 -11.9399996 -8.309
302 3 0.0 -37.8059998 -12.1409998 -7.5549999
303 3 0.0 -35.6539994 -12.2069998 -7.98
304 1 0.0 -40.3339996 -11.1890001 -8.5520001
305 2 0.0 -41.2999992 -10.4350004 -7.7579999
306 2 0.0 -40.6259995 -9.5430002 -6.7189999
307 3 0.0 -41.1980019 -8.5439997 -6.2859998
308 2 0.0 -42.2919998 -11.3730002 -7.0689998
309 3 0.0 -41.6349983 -12.2440004 -6.1690002
310 1 0.0 -39.4109993 -9.8990002 -6.3200002
311 2 0.0 -38.7179985 -9.1260004 -5.296
312 2 0.0 -37.7939987 -8.0539999 -5.889
313 3 0.0 -37.1520004 -7.2979999 -5.1539998
314 2 0.0 -37.9830018 -10.0450001 -4.316
315 2 0.0 -38.9399986 -10.8000002 -3.3970001
316 3 0.0 -40.1739998 -10.7959996 -3.648
317 3 0.0 -38.4580002 -11.4040003 -2.418
318 1 0.0 -37.7540016 -7.968 -7.2179999
319 2 0.0 -36.9799996 -6.9250002 -7.8860002
320 2 0.0 -37.7550011 -5.6079998 -7.9580002
321 3 0.0 -38.9370004 -5.553 -7.6240001
322 2 0.0 -36.5540009 -7.3829999 -9.283
323 1 0.0 -37.0870018 -4.5560003 -8.4180002
324 2 0.0 -37.6469994 -3.204 -8.3730002
325 2 0.0 -38.6090012 -2.8570002 -9.5089998
326 3 0.0 -39.6360016 -2.2130001 -9.2790003
327 2 0.0 -36.5309983 -2.175 -8.3039999
328 1 0.0 -38.2820015 -3.27 -10.7299996
329 2 0.0 -39.0439987 -2.829 -11.8999996
330 2 0.0 -40.4930001 -3.312 -11.9090004
331 3 0.0 -41.3810005 -2.6229999 -12.4169998
332 2 0.0 -38.3580017 -3.286 -13.191
333 3 0.0 -38.5439987 -4.678 -13.3909998
334 1 0.0 -40.7229996 -4.5 -11.3570004
335 2 0.0 -42.012001 -5.171 -11.4940005
336 2 0.0 -42.3790016 -5.2940002 -12.9709998
337 3 0.0 -43.5470009 -5.2189999 -13.3430004
338 2 0.0 -43.105999 -4.434 -10.7180004
339 2 0.0 -42.894001 -4.4299999 -9.2030001
340 2 0.0 -42.848999 -5.8299999 -8.6210003
341 3 0.0 -43.8289986 -6.5760002 -8.6859999
342 1 0.0 -41.7089997 -6.1929998 -8.0430002
343 1 0.0 -41.3660011 -5.48 -13.8109999
344 2 0.0 -41.5810013 -5.6739998 -15.2419996
345 2 0.0 -40.7470017 -6.8390002 -15.7399998
346 3 0.0 -39.8030014 -7.2670002 -15.0699997
347 2 0.0 -41.2039986 -4.414 -16.0209999
348 2 0.0 -42.0929985 -3.214 -15.7419997
349 2 0.0 -41.6230011 -1.987 -16.5119992
350 1 0.0 -41.6030007 -2.221 -17.9529992
351 2 0.0 -42.6769982 -2.161 -18.7360001
352 1 0.0 -43.8619996 -1.879 -18.2169991
353 1 0.0 -42.5680008 -2.3900001 -20.0359993
354 1 0.0 -41.0960007 -7.3660002 -16.9090004
355 2 0.0 -40.2260018 -8.3380003 -17.5540009
356 2 0.0 -39.0019989 -7.5819998 -18.0330009
357 3 0.0 -39.118 -6.4720001 -18.5529995
358 2 0.0 -40.9169998 -9.0389996 -18.7220001
359 2 0.0 -40.0880013 -10.1759996 -19.3069992
360 4 0.0 -40.1269989 -11.6890002 -18.3129997
361 2 0.0 -41.5699997 -12.5120001 -18.9759998
362 1 0.0 -37.8289986 -8.1759996 -17.8419992
363 2 0.0 -36.5769997 -7.481 -18.1000004
364 2 0.0 -35.6839981 -8.2749996 -19.0319996
365 3 0.0 -35.6240006 -9.5 -18.9389992
366 2 0.0 -35.8310013 -7.2410002 -16.7859993
367 2 0.0 -36.6290016 -6.5180002 -15.7259999
368 2 0.0 -35.862999 -6.4060001 -14.4200001
369 3 0.0 -34.619999 -6.5349999 -14.4519997
370 3 0.0 -36.4990006 -6.1989999 -13.3629999
371 1 0.0 -34.973999 -7.5710001 -19.927
372 2 0.0 -34.0769997 -8.1719999 -20.9200002
373 2 0.0 -32.8390008 -8.7790003 -20.2619991
374 3 0.0 -32.3470001 -8.2460003 -19.2689991
375 2 0.0 -33.6769982 -6.973 -21.7859993
376 2 0.0 -33.7999993 -5.809 -20.8600006
377 2 0.0 -35.0480003 -6.1090002 -20.0830002
378 1 0.0 -32.3400002 -9.8780004 -20.8180008
379 2 0.0 -31.1509991 -10.5340004 -20.2840004
380 2 0.0 -30.2329998 -11.0220003 -21.3939991
381 3 0.0 -29.2819996 -11.7650004 -21.1499996
382 2 0.0 -31.5389996 -11.6969996 -19.3670006
383 2 0.0 -31.9360008 -11.2600002 -17.9780006
384 2 0.0 -30.8260002 -10.4329996 -17.3460007
385 1 0.0 -31.0650005 -10.1780005 -15.9280006
386 2 0.0 -31.5930004 -9.0550003 -15.4499998
387 1 0.0 -31.9440002 -8.0760002 -16.2770004
388 1 0.0 -31.7709999 -8.9090004 -14.1420002
389 1 0.0 -30.5340004 -10.6090002 -22.6180001
390 2 0.0 -29.6720009 -10.8800002 -23.7579994
391 2 0.0 -29.6819992 -9.658 -24.6609993
392 3 0.0 -30.7040005 -8.9820004 -24.7859993
393 2 0.0 -30.1410008 -12.1110001 -24.5100003
394 1 0.0 -28.5370007 -9.3579998 -25.2880001
395 2 0.0 -28.4440003 -8.1719999 -26.1459999
396 2 0.0 -29.5230007 -8.1590004 -27.2229996
397 3 0.0 -30.1009998 -7.1079998 -27.4890003
398 2 0.0 -27.0620003 -8.3109999 -26.7870007
399 2 0.0 -26.2810001 -9.1459999 -25.8309994
400 2 0.0 -27.2679997 -10.1020002 -25.2189999
401 1 0.0 -29.8040009 -9.3149996 -27.8150006
402 2 0.0 -30.7019997 -9.3830004 -28.974001
403 2 0.0 -32.1809998 -9.1499996 -28.6630001
404 3 0.0 -32.9760018 -8.8990002 -29.5690003
405 2 0.0 -30.5240002 -10.7080002 -29.7180004
406 2 0.0 -30.3990002 -11.9099998 -28.8220005
407 2 0.0 -29.2460003 -12.4379998 -28.3139992
408 2 0.0 -31.4659996 -12.7340002 -28.3349991
409 1 0.0 -29.5289994 -13.5430002 -27.5459996
410 2 0.0 -30.8840008 -13.7449999 -27.5410004
411 2 0.0 -32.855999 -12.7159996 -28.4930001
412 2 0.0 -31.6429997 -14.7270003 -26.9109994
413 2 0.0 -33.6049996 -13.6929999 -27.8689996
414 2 0.0 -32.9980012 -14.684 -27.0849991
415 1 0.0 -32.5589981 -9.2290001 -27.3910008
416 2 0.0 -33.9519998 -8.9890004 -27.0209999
417 2 0.0 -34.2019997 -7.5159998 -26.6940003
418 3 0.0 -35.3409996 -7.059 -26.6779995
419 2 0.0 -34.3989983 -9.8760004 -25.8369999
420 2 0.0 -35.9199982 -10.0600004 -25.8540002
421 2 0.0 -33.9090004 -9.2930002 -24.5020008
422 2 0.0 -36.4300003 -10.7810002 -27.0979996
423 1 0.0 -33.1329994 -6.7719999 -26.4449997
424 2 0.0 -33.2700005 -5.3740001 -26.0489998
425 2 0.0 -33.9529992 -4.5359998 -27.1200008
426 3 0.0 -34.6049996 -3.54 -26.8120003
427 2 0.0 -31.9069996 -4.7740002 -25.7070008
428 2 0.0 -31.3910008 -5.1599999 -24.3279991
429 2 0.0 -29.969 -4.6880002 -24.0949993
430 3 0.0 -29.566 -3.672 -24.7040005
431 3 0.0 -29.2530003 -5.336 -23.3029995
432 1 0.0 -33.8079987 -4.9530002 -28.3740006
433 2 0.0 -34.3330002 -4.2030001 -29.5130005
434 2 0.0 -35.8580018 -4.2189999 -29.6089993
435 3 0.0 -36.4420014 -3.3729999 -30.2810001
436 2 0.0 -33.7159996 -4.7140003 -30.823
437 2 0.0 -34.1669998 -6.1149998 -31.2250004
438 2 0.0 -33.1850014 -6.8080001 -32.158001
439 3 0.0 -33.5750008 -7.3959999 -33.1689987
440 1 0.0 -31.9009992 -6.7399998 -31.8220005
441 1 0.0 -36.5029984 -5.178 -28.948
442 2 0.0 -37.9640008 -5.2230001 -28.9419994
443 2 0.0 -38.5169983 -3.914 -28.3780003
444 3 0.0 -37.980999 -3.368 -27.4160004
445 2 0.0 -38.480999 -6.4180002 -28.1289997
446 2 0.0 -38.0089989 -7.7880001 -28.6240006
447 2 0.0 -38.612999 -8.1879997 -29.9650002
448 3 0.0 -39.6520005 -7.619 -30.3589993
449 3 0.0 -38.0509987 -9.0869999 -30.6219998
450 1 0.0 -39.5880013 -3.412 -28.981001
451 2 0.0 -40.158001 -2.1400001 -28.5769997
452 2 0.0 -41.0229988 -2.25 -27.3390007
453 3 0.0 -41.2190018 -3.3440001 -26.809
454 1 0.0 -41.5480004 -1.109 -26.8710004
455 2 0.0 -42.389 -1.006 -25.6739998
456 2 0.0 -43.6069985 -1.915 -25.7409992
457 3 0.0 -44.0320015 -2.4330001 -24.7110005
458 2 0.0 -42.8300019 0.466 -25.6889992
459 2 0.0 -42.5449982 0.935 -27.0949993
460 2 0.0 -41.2900009 0.219 -27.4419995
461 1 0.0 -44.1619988 -2.1029999 -26.9330006
462 2 0.0 -45.3160019 -2.9760002 -27.0939999
463 2 0.0 -44.9669992 -4.3790002 -26.6219998
464 3 0.0 -45.7779999 -5.0479999 -25.9790002
465 2 0.0 -45.7719994 -3.0190001 -28.5520001
466 2 0.0 -45.8359986 -1.655 -29.2339993
467 2 0.0 -46.8969994 -0.739 -28.6410008
468 3 0.0 -47.8440018 -0.376 -29.3770008
469 3 0.0 -46.7879982 -0.381 -27.4440003
470 1 0.0 -43.7550011 -4.8179999 -26.9430008
471 2 0.0 -43.2999992 -6.1440001 -26.5489998
472 2 0.0 -43.2130013 -6.2459998 -25.0349998
473 3 0.0 -43.8400002 -7.1129999 -24.4239998
474 2 0.0 -41.9370004 -6.4689999 -27.1760006
475 2 0.0 -41.3650017 -7.7870002 -26.7049999
476 2 0.0 -41.75 -8.9770002 -27.2959995
477 2 0.0 -40.4510002 -7.8410002 -25.658001
478 2 0.0 -41.2410011 -10.1859999 -26.8700008
479 2 0.0 -39.9329988 -9.0459995 -25.2240009
480 2 0.0 -40.3349991 -10.2189999 -25.8360005
481 3 0.0 -39.8409996 -11.434 -25.4220009
482 1 0.0 -42.4420014 -5.3460002 -24.4349995
483 2 0.0 -42.1990013 -5.3810001 -22.9939996
484 2 0.0 -43.4679985 -5.1950002 -22.1779995
485 3 0.0 -43.6629982 -5.875 -21.1739998
486 2 0.0 -41.125 -4.3649998 -22.6049996
487 2 0.0 -39.8330002 -4.6830001 -23.2649994
488 2 0.0 -39.2480011 -4.006 -24.2910004
489 2 0.0 -38.9790002 -5.797 -22.9780006
490 1 0.0 -38.0719986 -4.6180001 -24.6509991
491 2 0.0 -37.8829994 -5.7189999 -23.8579998
492 2 0.0 -39.0289993 -6.8449998 -22.0529995
493 2 0.0 -36.848999 -6.6500001 -23.8449994
494 2 0.0 -38.0029984 -7.7680002 -22.0410004
495 2 0.0 -36.929001 -7.6669998 -22.9319992
496 1 0.0 -44.3370018 -4.2880001 -22.6180001
497 2 0.0 -45.6259995 -4.105 -21.9650002
498 2 0.0 -46.4029999 -5.422 -21.9510002
499 3 0.0 -46.9599992 -5.8140002 -20.9200002
500 2 0.0 -46.4389992 -3.006 -22.6550007
501 2 0.0 -45.8790016 -1.607 -22.3929997
502 3 0.0 -44.941002 -1.471 -21.5739994
503 3 0.0 -46.3810005 -0.639 -23.0100002
504 1 0.0 -46.4280014 -6.099 -23.0970001
505 2 0.0 -47.1230011 -7.3670001 -23.2360001
506 2 0.0 -46.5639992 -8.4930001 -22.3780003
507 3 0.0 -47.3149986 -9.224 -21.7320004
508 1 0.0 -45.2449989 -8.6409998 -22.3740006
509 2 0.0 -44.6139984 -9.6949997 -21.5960007
510 2 0.0 -44.8009987 -9.4180002 -20.1130009
511 3 0.0 -44.9570008 -10.3400002 -19.3080006
512 2 0.0 -43.1259995 -9.8030005 -21.9319992
513 2 0.0 -42.8479996 -10.1859999 -23.3770008
514 2 0.0 -43.5730019 -11.4490004 -23.7870007
515 3 0.0 -43.4150009 -12.4720001 -23.0900002
516 3 0.0 -44.2939987 -11.422 -24.8110008
517 1 0.0 -44.7910004 -8.1350002 -19.7649994
518 2 0.0 -44.9799996 -7.718 -18.389
519 2 0.0 -46.3800011 -8.0679998 -17.9099998
520 3 0.0 -46.5509987 -8.5970001 -16.8199997
521 2 0.0 -44.7050019 -6.211 -18.2099991
522 3 0.0 -43.2970009 -5.9699998 -18.3360005
523 2 0.0 -45.1650009 -5.7399998 -16.8419992
524 1 0.0 -47.3829994 -7.7919998 -18.7320004
525 2 0.0 -48.7529984 -8.1339998 -18.3659992
526 2 0.0 -48.9449998 -9.6450005 -18.2740002
527 3 0.0 -49.5680008 -10.1450005 -17.3439999
528 2 0.0 -49.737999 -7.5289998 -19.3589993
529 2 0.0 -49.8190003 -6.0159998 -19.257
530 2 0.0 -50.0029984 -5.3769999 -20.6189995
531 1 0.0 -51.2840004 -5.7270003 -21.2189999
532 2 0.0 -51.5719986 -5.553 -22.5039997
533 1 0.0 -50.6609993 -5.0409999 -23.3260002
534 1 0.0 -52.7649994 -5.895 -22.969
535 1 0.0 -48.3989983 -10.3690004 -19.2409992
536 2 0.0 -48.5250016 -11.8190003 -19.2579994
537 2 0.0 -47.8429986 -12.4510002 -18.0410004
538 3 0.0 -48.4029999 -13.3339996 -17.3980007
539 2 0.0 -47.9729996 -12.3870001 -20.5720005
540 2 0.0 -48.8240013 -12.033 -21.7950001
541 2 0.0 -48.3110008 -12.6949997 -23.0769997
542 2 0.0 -47.125 -11.948 -23.6690007
543 1 0.0 -46.6609993 -12.573 -24.9470006
544 1 0.0 -46.6479988 -11.9779998 -17.7089997
545 2 0.0 -45.8899994 -12.5790005 -16.6180001
546 2 0.0 -46.5600014 -12.3120003 -15.2670002
547 3 0.0 -46.4760018 -13.132 -14.349
548 2 0.0 -44.4039993 -12.1350002 -16.6270008
549 2 0.0 -44.243 -10.7469998 -16.0359993
550 2 0.0 -43.5419998 -13.1470003 -15.896
551 1 0.0 -47.2509995 -11.1789999 -15.1619997
552 2 0.0 -48.0509987 -10.8780004 -13.9779998
553 2 0.0 -49.2649994 -11.8030005 -13.8669996
554 3 0.0 -49.5970001 -12.2749996 -12.783
555 2 0.0 -48.5040016 -9.4169998 -13.9870006
556 2 0.0 -47.401001 -8.4209996 -13.6590004
557 2 0.0 -47.9360008 -6.9910002 -13.6610003
558 2 0.0 -46.8800012 -5.9970002 -13.2139998
559 1 0.0 -47.3250008 -4.5850001 -13.4350004
560 1 0.0 -49.9280014 -12.052 -14.993
561 2 0.0 -51.0690002 -12.9610004 -15.0179996
562 2 0.0 -50.632 -14.3789997 -14.6560002
563 3 0.0 -51.3950005 -15.1409998 -14.0640001
564 2 0.0 -51.7330017 -12.9429998 -16.3899994
565 1 0.0 -49.4049988 -14.7250004 -15.0369997
566 2 0.0 -48.8030014 -15.9989996 -14.6630001
567 2 0.0 -48.5719986 -16.0209999 -13.1560001
568 3 0.0 -48.876999 -17.0030003 -12.4799996
569 2 0.0 -47.4650002 -16.1870003 -15.3760004
570 2 0.0 -47.5849991 -16.6429997 -16.7959996
571 1 0.0 -48.1769981 -15.8780004 -17.7810002
572 2 0.0 -47.1619988 -17.7740002 -17.4090004
573 2 0.0 -48.125 -16.5230007 -18.929001
574 1 0.0 -47.5130005 -17.6809998 -18.7320004
575 1 0.0 -48.012001 -14.9309998 -12.6409998
576 2 0.0 -47.7960015 -14.7840004 -11.2100001
577 2 0.0 -49.1090012 -14.9519998 -10.4610005
578 3 0.0 -49.2270012 -15.7799998 -9.5539999
579 2 0.0 -47.2099991 -13.4099999 -10.9060002
580 3 0.0 -47.1209984 -13.2049999 -9.5150004
581 1 0.0 -50.0999985 -14.1619997 -10.8549996
582 2 0.0 -51.3989983 -14.1899996 -10.1999998
583 2 0.0 -52.0040016 -15.5900002 -10.2139998
584 3 0.0 -52.5709992 -16.0400009 -9.2229996
585 2 0.0 -52.3510018 -13.1920004 -10.8620006
586 2 0.0 -53.7290001 -13.1499996 -10.2299996
587 2 0.0 -53.6739998 -12.9049998 -8.7329998
588 3 0.0 -52.7900009 -12.2010002 -8.2360001
589 1 0.0 -54.6230011 -13.4870005 -8.0050001
590 1 0.0 -51.8849984 -16.2789993 -11.3409996
591 2 0.0 -52.4580002 -17.6119995 -11.4619999
592 2 0.0 -51.8520012 -18.5869999 -10.4519997
593 3 0.0 -52.5620003 -19.382 -9.8389998
594 2 0.0 -52.2849999 -18.1700001 -12.8839998
595 3 0.0 -53.1689987 -17.4769993 -13.776
596 2 0.0 -52.6160012 -19.6490002 -12.9119998
597 1 0.0 -50.5390015 -18.5279999 -10.2790003
598 2 0.0 -49.8720016 -19.4610005 -9.3800001
599 2 0.0 -50.0429993 -19.0650005 -7.9099998
600 3 0.0 -49.9850006 -19.9120008 -7.0190001
601 2 0.0 -48.4059982 -19.6450005 -9.79
602 2 0.0 -48.2470017 -20.1110001 -11.2060003
603 1 0.0 -47.4179993 -19.4860001 -12.1129999
604 2 0.0 -48.8590012 -21.1119995 -11.8859998
605 2 0.0 -47.5050011 -20.0970001 -13.2819996
606 1 0.0 -48.3709984 -21.0879993 -13.1709995
607 1 0.0 -50.2900009 -17.783001 -7.6659999
608 2 0.0 -50.6049996 -17.3269997 -6.3189998
609 2 0.0 -51.8720016 -18.0249996 -5.8449998
610 3 0.0 -51.9700012 -18.4599991 -4.6960001
611 2 0.0 -50.7879982 -15.8059998 -6.283
612 2 0.0 -51.1399994 -15.2620001 -4.902
613 2 0.0 -50.9700012 -13.7489996 -4.8260002
614 1 0.0 -52.1199989 -13.0080004 -5.3400002
615 2 0.0 -52.1899986 -11.6770001 -5.3940001
616 1 0.0 -51.1739998 -10.936 -4.9650002
617 1 0.0 -53.2750015 -11.0819998 -5.8790002
618 1 0.0 -52.8409996 -18.1340008 -6.7459998
619 2 0.0 -54.0779991 -18.8419992 -6.4499998
620 2 0.0 -53.8279991 -20.3500004 -6.3509998
621 3 0.0 -54.3590012 -21.0149994 -5.4580002
622 2 0.0 -55.1599999 -18.5319996 -7.5100003
623 2 0.0 -56.3059998 -19.5349999 -7.4369998
624 2 0.0 -55.6689987 -17.1000004 -7.3369999
625 1 0.0 -53.0 -20.875 -7.2540002
626 2 0.0 -52.6860008 -22.3069992 -7.289
627 2 0.0 -52.1259995 -22.8379994 -5.9699998
628 3 0.0 -52.4599991 -23.9430008 -5.5500002
629 2 0.0 -51.6829987 -22.6180001 -8.401
630 2 0.0 -52.2890015 -22.5039997 -9.7910004
631 3 0.0 -53.5289994 -22.4850006 -9.9180002
632 3 0.0 -51.5120011 -22.4370003 -10.7580004
633 1 0.0 -51.2459984 -22.0669994 -5.3400002
634 2 0.0 -50.6769982 -22.4689999 -4.059
635 2 0.0 -51.7799988 -22.7259999 -3.0339999
636 3 0.0 -51.7210007 -23.6949997 -2.2780001
637 2 0.0 -49.7039986 -21.4090004 -3.5420001
638 2 0.0 -48.3569985 -21.3269997 -4.2610002
639 2 0.0 -47.6679993 -19.9890004 -4.0019999
640 2 0.0 -47.4720001 -22.4950009 -3.8440002
641 1 0.0 -52.7869988 -21.8600006 -3.0150001
642 2 0.0 -53.9049988 -22.0310001 -2.1070001
643 2 0.0 -54.7350006 -23.2360001 -2.4949999
644 3 0.0 -55.1389999 -24.0270004 -1.6460001
645 1 0.0 -54.9780006 -23.3829994 -3.793
646 2 0.0 -55.7599983 -24.5030003 -4.3010001
647 2 0.0 -55.1110001 23.0090008 -3.952
648 3 0.0 -55.7840004 22.073 -3.5079999
649 2 0.0 -55.9319992 -24.4139996 -5.8260002
650 3 0.0 -56.5239983 -23.1550007 -6.164
651 2 0.0 -56.8199997 23.3010006 -6.3340001
652 1 0.0 -53.7989998 22.9300004 -4.1550002
653 2 0.0 -53.0519981 21.7019997 -3.9030002
654 2 0.0 -52.9650002 21.3859997 -2.4089999
655 3 0.0 -53.0139999 20.2269993 -2.01
656 2 0.0 -51.6539994 21.7940007 -4.5250001
657 2 0.0 -51.6749993 21.8069992 -6.0539999
658 2 0.0 -50.3549996 22.2929993 -6.6290002
659 2 0.0 -52.026001 20.4270001 -6.5840001
660 1 0.0 -52.8349991 22.4190006 -1.5880001
661 2 0.0 -52.8370018 22.2210007 -0.144
662 2 0.0 -54.1609993 21.6009999 0.303
663 3 0.0 -54.1940003 20.7740002 1.207
664 2 0.0 -52.5919991 23.5370007 0.592
665 2 0.0 -52.4959984 23.3710003 2.0910001
666 2 0.0 -52.1160011 -24.184 2.7780001