 **********************************************************************
                          MRCC program system
 **********************************************************************
 
                              Written by
    Mihaly Kallay, Zoltan Rolik, Jozsef Csontos, Istvan Ladjanszki,
       Lorant Szegedy, Bence Ladoczki, Gyula Samu, Klara Petrov,
        Mate Farkas, Peter Nagy, David Mester, and Bence Hegely
 
        Department of Physical Chemistry and Materials Science
            Budapest University of Technology and Economics
                  Budapest P.O.Box 91, H-1521 Hungary
 
                              www.mrcc.hu

 ************************ 2018-04-04 00:15:50 *************************
 Executing minp...

 Reading input from MINP...
 
 Input file:
 
# TITLE
basis=aV(D+d)Z-MOLP12
uncontract=off
#iface=cfour
calc=CC(4)
mem=22GB
core=5
itol=18
scftol=13
cctol=5
ccmaxit=999
scfmaxit=9999
scftype=ROHF
rohftype=semicanonical
scfiguess=ao
rest=2
charge=+0
mult=3
symm=1
occ=3,0,0,0,0,1,2,2/3,0,0,0,0,1,1,1
#refdet=serialno
#1-6
#7,8

geom
Si

#Li 1 R

#R=3.065

#unit=angstroms

tprint=0.01
verbosity=3
nstate=4

 
 
 Checking keyword combinations...
 
 Keywords:
 
 active=none
 agrid=ld0006-ld0590
 basis=av(d+d)z-molp12
 basopt=off
 bpcompo=0.985
 bpcompv=0.98
 bpdfo=0.985
 bpocc=0.985
 bppdo=0.985
 bppdv=0.98
 bpedo=0.985
 bpedv=0.98
 calc=cc(4)
 ccmaxit=999
 ccprog=mrcc
 cctol=5
 charge=+0
 cialg=disk
 ciguess=off
 cmpgrp=auto
 core=5
 corembed=off
 dboc=off
 dendec=cholesky
 dens=0
 dfalg=invsqrt
 dfbasis_cor=none
 dfbasis_scf=none
 dfintran=ovirt
 dft=off
 diag=david
 domrad=10.d0
 drpaalg=fit
 ecp=auto
 edisp=off
 embed=off
 epert=none
 eps=0.975
 excrad=0.d0
 excrad_fin=0.000000000D+00
 freq=off
 gauss=spher
 geom=zmat
 gopt=off
 ghost=none
 gtol=7
 grtol=10
 hamilton=dc
 iface=none
 intalg=auto
 itol=18
 lcorthr=loose
 lccrest=off
 lmp2dens=on
 lnoepso=3e-5
 lnoepsv=1e-6
 localcc=off
 locintrf=disk
 maxact=off
 maxex=0
 bfbasis=none
 mem=22gb
 molden=on
 mulmet=0
 mult=3
 nacto=0
 nactv=0
 naf_cor=off
 naf_scf=off
 nafalg=albe
 naftyp=
 nchol=auto
 ndeps=1e-3
 nstate=4
 nsing=0
 ntrip=0
 occ=3,0,0,0,0,1,2,2/3,0,0,0,0,1,1,1
 optalg=
 optmaxit=50
 optetol=1e-6
 optgtol=1e-4
 optstol=1e-3
 orblocc=off
 orbloco=off
 orblocv=off
 osveps=1e-3
 ovirt=off
 ovosnorb=80.0
 ptfreq=0.0
 popul=off
 pressure=100000
 qmmm=off
 refdet=none
 rest=2
 rgrid=log3
 rohftype=semicanonical
 scspe=1.d0
 scsps=1.2d0
 scspt=0.33333333333333
 scfalg=auto
 scfdamp=off
 scfdiis=on
 scfdiis_end=9999
 scfdiis_start=1
 scfdiis_step=1
 scfdtol=17
 scfext=10
 scfiguess=ao
 scflshift=off
 scfmaxit=9999
 scftype=rohf
 scftol=13
 spairtol=1e-4
 symm=1
 talg=occ
 temp=298.15
 test=off
 tprint=0.01
 uncontract=off
 unit=angs
 verbosity=3
 wpairtol=0.100000000E-05

 ************************ 2018-04-04 00:15:51 *************************
 Executing integ...

 Allocation of 22.0 Gbytes of memory...
 
 Number of atoms:            1
 Charge:                     0
 Number of electrons:       14
 Number of core electrons:  10
 Spin multiplicity:          3
 
                 Cartesian coordinates [bohr]      Atomic mass [AMU]  Z
   1  Si    0.00000000    0.00000000    0.00000000    27.976927      14
 
 This molecule is a spherical top.
 
 Rotational constants [cm-1]: 

 
 Point group: Dxh 
 Computational point group: D2h 
 
 Cartesian coordinates in standard orientation [bohr]
   1  Si    0.00000000    0.00000000    0.00000000
 
 Nuclear repulsion energy [au]:          0.000000000000
 
 
 Basis set information:
 
 Maximum angular momentum: d
 Maximum number of contracted Gaussians:    5
 Maximum number of primitive Gaussians:    13
 Spherical harmonic GTOs are used.
 
    1  Si av(d+d)z-molp12 [ 13s 9p 3d | 5s 4p 3d ]
 
 Basis functions:
           1             2             3             4             5             6             7             8             9            10
   0    1Si1s         1Si2s         1Si3s         1Si4s         1Si5s         1Si1pz        1Si1py        1Si1px        1Si2pz        1Si2py    
   1    1Si2px        1Si3pz        1Si3py        1Si3px        1Si4pz        1Si4py        1Si4px        1Si1d-2       1Si1d-1       1Si1d0    
   2    1Si1d+1       1Si1d+2       1Si2d-2       1Si2d-1       1Si2d0        1Si2d+1       1Si2d+2       1Si3d-2       1Si3d-1       1Si3d0    
   3    1Si3d+1       1Si3d+2   
 
 Maximum number of basis functions per shell:   15
 Total number of basis functions:    32
 
 
 Character table for point group D2h:
 
          E  C2z C2y C2x  i  Qxy Qxz Qyz 
    Ag    1   1   1   1   1   1   1   1
    B1g   1   1  -1  -1   1   1  -1  -1
    B2g   1  -1   1  -1   1  -1   1  -1
    B3g   1  -1  -1   1   1  -1  -1   1
    Au    1   1   1   1  -1  -1  -1  -1
    B1u   1   1  -1  -1  -1  -1   1   1
    B2u   1  -1   1  -1  -1   1  -1   1
    B3u   1  -1  -1   1  -1   1   1  -1
 
 Number of basis functions per irrep:
    Ag     11
    B1g     3
    B2g     3
    B3g     3
    Au      0
    B1u     4
    B2u     4
    B3u     4
 
 
 Calculation of overlap integrals...
 CPU time [min]:     0.032                   Wall time [min]:     0.028
 Calculation of kinetic energy integrals...
 CPU time [min]:     0.058                   Wall time [min]:     0.030
 Calculation of dipole moment integrals...
 CPU time [min]:     0.062                   Wall time [min]:     0.030
 Calculation of second moment integrals...
 CPU time [min]:     0.063                   Wall time [min]:     0.030
 Calculation of third moment integrals...
 CPU time [min]:     0.063                   Wall time [min]:     0.030
 Calculation of linear momentum integrals...
 CPU time [min]:     0.063                   Wall time [min]:     0.030
 Calculation of angular momentum integrals...
 CPU time [min]:     0.064                   Wall time [min]:     0.030
 Calculation of nuclear attraction integrals...
 CPU time [min]:     0.064                   Wall time [min]:     0.030
 
 Calculation of prescreening integrals...
 CPU time [min]:     0.102                   Wall time [min]:     0.032
 
 Calculation of two-electron integrals...
   8% done.
 100% done.
 CPU time [min]:     0.232                   Wall time [min]:     0.039

 ************************ 2018-04-04 00:15:54 *************************
 Executing scf...

 @scfsetup: integrals taken from disk
            mrcc/integ binary format
 @scfsetup: calc on blockdiagonal matrices
            using symmetry adapted basis
 @scfsetup: diis switched on
 @scfsetup: number of steps to extrapolate from  10
 @scfsetup: tolerance in energy deviation    0.100000E-12
            tolerance in density deviation    0.100000E-16
 @scfsetup: maximum number of iterations:9999
 @scfsetup: restricted open shell hf calc
            semicanonical orbitals
 @scfsetup: starting scf from diagonal ao guess
 @scfsetup: occupation set:
            by user in MINP
 @scfsetup: the forced occuapation is
 ALPHA OCC:   3   0   0   0   0   1   2   2
 BETA  OCC:   3   0   0   0   0   1   1   1
 @scfsetup: diis bmat treshold:    1.0000E-30
 @scfsetup: diis runs from iteration:   1
 @scfsetup: diis runs to iteration:9999
 @scfsetup: diis runs in every   1 iteration
 Allocation of 22.0 Gbytes of memory...
 ======================================================================
 ITERATION STEP   1
 CPU time [min]:     0.003                   Wall time [min]:     0.009
 
 @SCF: CHECKING CLOSED SHELL DENSITY MATRIX
 @check_dens: symmetry of density matrix OK!
 @check_dens: norm of density matrix OK!
 @check_dens: density idempotency OK!
 @SCF: CHECKING OPEN SHELL DENSITY MATRIX
 @check_dens: symmetry of density matrix OK!
 @check_dens: norm of density matrix OK!
 @check_dens: density idempotency OK!
 Squared Frobenius norm of total diff density:         5.99490099206719
 Squared Frobenius norm of open  diff density:         1.62221705234108
 ALPHA OCC:   3   0   0   0   0   1   2   2
 BETA  OCC:   3   0   0   0   0   1   1   1
 ***HARTREE-FOCK ENERGY IN STEP   1 IS    -289.2621072771016770 [AU]
 ======================================================================
 ITERATION STEP   2
 CPU time [min]:     0.009                   Wall time [min]:     0.010
 
 @scf diis running in this iteration
 @diis: reciprocal condition number    0.1000E+01
 @SCF: CHECKING CLOSED SHELL DENSITY MATRIX
 @check_dens: symmetry of density matrix OK!
 @check_dens: norm of density matrix OK!
 @check_dens: density idempotency OK!
 @SCF: CHECKING OPEN SHELL DENSITY MATRIX
 @check_dens: symmetry of density matrix OK!
 @check_dens: norm of density matrix OK!
 @check_dens: density idempotency OK!
 Squared Frobenius norm of total diff density:         2.85056774175130
 Squared Frobenius norm of open  diff density:         1.69879183060592
 ALPHA OCC:   3   0   0   0   0   1   2   2
 BETA  OCC:   3   0   0   0   0   1   1   1
 ***HARTREE-FOCK ENERGY IN STEP   2 IS    -288.4002968126977748 [AU]
 ======================================================================
 ITERATION STEP   3
 CPU time [min]:     0.103                   Wall time [min]:     0.019
 
 @scf diis running in this iteration
 @diis: reciprocal condition number    0.1231E-01
 @SCF: CHECKING CLOSED SHELL DENSITY MATRIX
 @check_dens: symmetry of density matrix OK!
 @check_dens: norm of density matrix OK!
 @check_dens: density idempotency OK!
 @SCF: CHECKING OPEN SHELL DENSITY MATRIX
 @check_dens: symmetry of density matrix OK!
 @check_dens: norm of density matrix OK!
 @check_dens: density idempotency OK!
 Squared Frobenius norm of total diff density:         0.27107654998338
 Squared Frobenius norm of open  diff density:         0.04599166592168
 ALPHA OCC:   3   0   0   0   0   1   2   2
 BETA  OCC:   3   0   0   0   0   1   1   1
 ***HARTREE-FOCK ENERGY IN STEP   3 IS    -288.8279345669589588 [AU]
 ======================================================================
 ITERATION STEP   4
 CPU time [min]:     0.109                   Wall time [min]:     0.019
 
 @scf diis running in this iteration
 @diis: reciprocal condition number    0.7227E-04
 @SCF: CHECKING CLOSED SHELL DENSITY MATRIX
 @check_dens: symmetry of density matrix OK!
 @check_dens: norm of density matrix OK!
 @check_dens: density idempotency OK!
 @SCF: CHECKING OPEN SHELL DENSITY MATRIX
 @check_dens: symmetry of density matrix OK!
 @check_dens: norm of density matrix OK!
 @check_dens: density idempotency OK!
 Squared Frobenius norm of total diff density:         0.00553472376268
 Squared Frobenius norm of open  diff density:         0.00542320426604
 ALPHA OCC:   3   0   0   0   0   1   2   2
 BETA  OCC:   3   0   0   0   0   1   1   1
 ***HARTREE-FOCK ENERGY IN STEP   4 IS    -288.8466114759693824 [AU]
 ======================================================================
 ITERATION STEP   5
 CPU time [min]:     0.125                   Wall time [min]:     0.021
 
 @scf diis running in this iteration
 @diis: reciprocal condition number    0.6893E-05
 @SCF: CHECKING CLOSED SHELL DENSITY MATRIX
 @check_dens: symmetry of density matrix OK!
 @check_dens: norm of density matrix OK!
 @check_dens: density idempotency OK!
 @SCF: CHECKING OPEN SHELL DENSITY MATRIX
 @check_dens: symmetry of density matrix OK!
 @check_dens: norm of density matrix OK!
 @check_dens: density idempotency OK!
 Squared Frobenius norm of total diff density:         0.00050781525574
 Squared Frobenius norm of open  diff density:         0.00041725806420
 ALPHA OCC:   3   0   0   0   0   1   2   2
 BETA  OCC:   3   0   0   0   0   1   1   1
 ***HARTREE-FOCK ENERGY IN STEP   5 IS    -288.8470253299166757 [AU]
 ======================================================================
 ITERATION STEP   6
 CPU time [min]:     0.144                   Wall time [min]:     0.022
 
 @scf diis running in this iteration
 @diis: reciprocal condition number    0.1651E-07
 @SCF: CHECKING CLOSED SHELL DENSITY MATRIX
 @check_dens: symmetry of density matrix OK!
 @check_dens: norm of density matrix OK!
 @check_dens: density idempotency OK!
 @SCF: CHECKING OPEN SHELL DENSITY MATRIX
 @check_dens: symmetry of density matrix OK!
 @check_dens: norm of density matrix OK!
 @check_dens: density idempotency OK!
 Squared Frobenius norm of total diff density:         0.00000231595643
 Squared Frobenius norm of open  diff density:         0.00000221689646
 ALPHA OCC:   3   0   0   0   0   1   2   2
 BETA  OCC:   3   0   0   0   0   1   1   1
 ***HARTREE-FOCK ENERGY IN STEP   6 IS    -288.8470622045792879 [AU]
 ======================================================================
 ITERATION STEP   7
 CPU time [min]:     0.238                   Wall time [min]:     0.028
 
 @scf diis running in this iteration
 @diis: reciprocal condition number    0.3345E-10
 @SCF: CHECKING CLOSED SHELL DENSITY MATRIX
 @check_dens: symmetry of density matrix OK!
 @check_dens: norm of density matrix OK!
 @check_dens: density idempotency OK!
 @SCF: CHECKING OPEN SHELL DENSITY MATRIX
 @check_dens: symmetry of density matrix OK!
 @check_dens: norm of density matrix OK!
 @check_dens: density idempotency OK!
 Squared Frobenius norm of total diff density:         0.00000002541070
 Squared Frobenius norm of open  diff density:         0.00000001408992
 ALPHA OCC:   3   0   0   0   0   1   2   2
 BETA  OCC:   3   0   0   0   0   1   1   1
 ***HARTREE-FOCK ENERGY IN STEP   7 IS    -288.8470625348584804 [AU]
 ======================================================================
 ITERATION STEP   8
 CPU time [min]:     0.299                   Wall time [min]:     0.034
 
 @scf diis running in this iteration
 @diis: reciprocal condition number    0.6675E-13
 @SCF: CHECKING CLOSED SHELL DENSITY MATRIX
 @check_dens: symmetry of density matrix OK!
 @check_dens: norm of density matrix OK!
 @check_dens: density idempotency OK!
 @SCF: CHECKING OPEN SHELL DENSITY MATRIX
 @check_dens: symmetry of density matrix OK!
 @check_dens: norm of density matrix OK!
 @check_dens: density idempotency OK!
 Squared Frobenius norm of total diff density:         0.00000000000727
 Squared Frobenius norm of open  diff density:         0.00000000000599
 ALPHA OCC:   3   0   0   0   0   1   2   2
 BETA  OCC:   3   0   0   0   0   1   1   1
 ***HARTREE-FOCK ENERGY IN STEP   8 IS    -288.8470625365947058 [AU]
 ======================================================================
 ITERATION STEP   9
 CPU time [min]:     0.316                   Wall time [min]:     0.035
 
 @scf diis running in this iteration
 @diis: reciprocal condition number    0.2429E-15
 @SCF: CHECKING CLOSED SHELL DENSITY MATRIX
 @check_dens: symmetry of density matrix OK!
 @check_dens: norm of density matrix OK!
 @check_dens: density idempotency OK!
 @SCF: CHECKING OPEN SHELL DENSITY MATRIX
 @check_dens: symmetry of density matrix OK!
 @check_dens: norm of density matrix OK!
 @check_dens: density idempotency OK!
 Squared Frobenius norm of total diff density:         0.00000000000007
 Squared Frobenius norm of open  diff density:         0.00000000000003
 ALPHA OCC:   3   0   0   0   0   1   2   2
 BETA  OCC:   3   0   0   0   0   1   1   1
 ***HARTREE-FOCK ENERGY IN STEP   9 IS    -288.8470625365955584 [AU]
 ======================================================================
 ITERATION STEP  10
 CPU time [min]:     0.331                   Wall time [min]:     0.036
 
 @scf diis running in this iteration
 @diis: reciprocal condition number    0.1735E-18
 @SCF: CHECKING CLOSED SHELL DENSITY MATRIX
 @check_dens: symmetry of density matrix OK!
 @check_dens: norm of density matrix OK!
 @check_dens: density idempotency OK!
 @SCF: CHECKING OPEN SHELL DENSITY MATRIX
 @check_dens: symmetry of density matrix OK!
 @check_dens: norm of density matrix OK!
 @check_dens: density idempotency OK!
 Squared Frobenius norm of total diff density:         0.00000000000000
 Squared Frobenius norm of open  diff density:         0.00000000000000
 ALPHA OCC:   3   0   0   0   0   1   2   2
 BETA  OCC:   3   0   0   0   0   1   1   1
 ***HARTREE-FOCK ENERGY IN STEP  10 IS    -288.8470625365958426 [AU]
 ======================================================================
 ITERATION STEP  11
 CPU time [min]:     0.345                   Wall time [min]:     0.037
 
 @scf diis running in this iteration
 @diis: reciprocal condition number    0.3054E-21
 @SCF: CHECKING CLOSED SHELL DENSITY MATRIX
 @check_dens: symmetry of density matrix OK!
 @check_dens: norm of density matrix OK!
 @check_dens: density idempotency OK!
 @SCF: CHECKING OPEN SHELL DENSITY MATRIX
 @check_dens: symmetry of density matrix OK!
 @check_dens: norm of density matrix OK!
 @check_dens: density idempotency OK!
 Squared Frobenius norm of total diff density:         0.00000000000000
 Squared Frobenius norm of open  diff density:         0.00000000000000
 ALPHA OCC:   3   0   0   0   0   1   2   2
 BETA  OCC:   3   0   0   0   0   1   1   1
 ***HARTREE-FOCK ENERGY IN STEP  11 IS    -288.8470625365956721 [AU]
 ======================================================================
 ITERATION STEP  12
 CPU time [min]:     0.359                   Wall time [min]:     0.038
 
 @scf diis running in this iteration
 @diis: reciprocal condition number    0.2417E-22
 @SCF: CHECKING CLOSED SHELL DENSITY MATRIX
 @check_dens: symmetry of density matrix OK!
 @check_dens: norm of density matrix OK!
 @check_dens: density idempotency OK!
 @SCF: CHECKING OPEN SHELL DENSITY MATRIX
 @check_dens: symmetry of density matrix OK!
 @check_dens: norm of density matrix OK!
 @check_dens: density idempotency OK!
 Squared Frobenius norm of total diff density:         0.00000000000000
 Squared Frobenius norm of open  diff density:         0.00000000000000
 ALPHA OCC:   3   0   0   0   0   1   2   2
 BETA  OCC:   3   0   0   0   0   1   1   1
 ***HARTREE-FOCK ENERGY IN STEP  12 IS    -288.8470625365955016 [AU]
 ======================================================================
 ITERATION STEP  13
 CPU time [min]:     0.373                   Wall time [min]:     0.039
 
 @scf diis running in this iteration
 @diis: reciprocal condition number    0.1084E-22
 @SCF: CHECKING CLOSED SHELL DENSITY MATRIX
 @check_dens: symmetry of density matrix OK!
 @check_dens: norm of density matrix OK!
 @check_dens: density idempotency OK!
 @SCF: CHECKING OPEN SHELL DENSITY MATRIX
 @check_dens: symmetry of density matrix OK!
 @check_dens: norm of density matrix OK!
 @check_dens: density idempotency OK!
 Squared Frobenius norm of total diff density:         0.00000000000000
 Squared Frobenius norm of open  diff density:         0.00000000000000
 ALPHA OCC:   3   0   0   0   0   1   2   2
 BETA  OCC:   3   0   0   0   0   1   1   1
 ***HARTREE-FOCK ENERGY IN STEP  13 IS    -288.8470625365957289 [AU]
 ======================================================================
 ITERATION STEP  14
 CPU time [min]:     0.387                   Wall time [min]:     0.039
 
 @scf diis running in this iteration
 @diis: reciprocal condition number    0.1557E-21
 @SCF: CHECKING CLOSED SHELL DENSITY MATRIX
 @check_dens: symmetry of density matrix OK!
 @check_dens: norm of density matrix OK!
 @check_dens: density idempotency OK!
 @SCF: CHECKING OPEN SHELL DENSITY MATRIX
 @check_dens: symmetry of density matrix OK!
 @check_dens: norm of density matrix OK!
 @check_dens: density idempotency OK!
 Squared Frobenius norm of total diff density:         0.00000000000000
 Squared Frobenius norm of open  diff density:         0.00000000000000
 ALPHA OCC:   3   0   0   0   0   1   2   2
 BETA  OCC:   3   0   0   0   0   1   1   1
 ***HARTREE-FOCK ENERGY IN STEP  14 IS    -288.8470625365956153 [AU]
 ======================================================================
 ITERATION STEP  15
 CPU time [min]:     0.405                   Wall time [min]:     0.041
 
 @scf diis running in this iteration
 @diis: reciprocal condition number    0.1612E-19
 @SCF: CHECKING CLOSED SHELL DENSITY MATRIX
 @check_dens: symmetry of density matrix OK!
 @check_dens: norm of density matrix OK!
 @check_dens: density idempotency OK!
 @SCF: CHECKING OPEN SHELL DENSITY MATRIX
 @check_dens: symmetry of density matrix OK!
 @check_dens: norm of density matrix OK!
 @check_dens: density idempotency OK!
 Squared Frobenius norm of total diff density:         0.00000000000000
 Squared Frobenius norm of open  diff density:         0.00000000000000
 ALPHA OCC:   3   0   0   0   0   1   2   2
 BETA  OCC:   3   0   0   0   0   1   1   1
 ***HARTREE-FOCK ENERGY IN STEP  15 IS    -288.8470625365956153 [AU]
 ======================================================================
 
 SUCCESS...
 THE SCF ITERATION HAS CONVERGED!
 
                   Ag  B1g B2g B3g Au  B1u B2u B3u 
 FINAL ALPHA OCC:   3   0   0   0   0   1   2   2
 FINAL BETA  OCC:   3   0   0   0   0   1   1   1
 
 ***FINAL HARTREE-FOCK ENERGY:   -288.8470625365956153 [AU]
 ***SEMICANONICAL ROHF ENERGY:   -288.8470625365956153 [AU]
 
 Orbital energies [au]:
      Irrep         Alpha          Beta
    1   Ag       -68.819471     -68.810551
    2   Ag        -6.163646      -6.152813
    3   B2u       -4.270106      -4.243955
    4   B3u       -4.270106      -4.243955
    5   B1u       -4.261931      -4.257132
    6   Ag        -0.619296      -0.463014
 
    7   B3u       -0.297193       0.034140
    8   B2u       -0.297193       0.034140
 
    9   B1u       -0.017149       0.010935
   10   Ag         0.071184       0.083283
   11   B2u        0.077142       0.121998
   12   B3u        0.077142       0.121998
   13   B1u        0.088097       0.100139
   14   Ag         0.200132       0.234533
   15   B1g        0.200132       0.257813
   16   B3g        0.208038       0.240601
   17   B2g        0.208038       0.240601
   18   Ag         0.210882       0.257813
   19   B2u        0.525677       0.594657
   20   B3u        0.525677       0.594657
   21   B1u        0.546338       0.562631
   22   Ag         0.546694       0.580228
   23   Ag         0.652751       0.696899
   24   B1g        0.652751       0.735531
   25   B2g        0.657860       0.706313
   26   B3g        0.657860       0.706313
   27   Ag         0.659828       0.735531
   28   Ag         3.317763       3.323807
   29   B2g        3.322346       3.329939
   30   B3g        3.322346       3.329939
   31   Ag         3.336129       3.348444
   32   B1g        3.336129       3.348444
 
 RETURNING FROM SCF ALGORITHM
 ======================================================================

 ************************ 2018-04-04 00:15:57 *************************
 Executing ovirt...

 ovirt, the routine of orbital optimization and integral transformation 
Wed Apr  4 00:15:57 EDT 2018
 memory =                  22528  Mb            2952790016  8 byte word
 mrccboot = T
 scftype  = rohf 
 localcc  = off 
 core     = 5   
 ovirt    = off  
 ccprog   = mrcc
 dfnbasis =                      0
 dfbasis_cor =none                
 lmp2dens = on 
 dens =                      0
 verblev =                      3
 task     =                      4
 epsilon =   0.975000000000000     
 lmp2= on 
 localNO  =  F
 localMP2 =  F
 localMP2_TEST =  F
 LMP2_shortcut =  F
 FOCKTR   =  F
 Allocated memory:                   22528  Mb
 onbasis=                    32
 UHF calculation! 
 integral transformation: AOs --- MOs (alpha-alpha)
 # of basis functions, # of int. blocks    32     1
100 % 
 second part
100 %
 integral transformation is completed! 
 integral transformation: AOs ------ MOs (beta-beta)
 # of basis functions, # of int. blocks    32     1
100 % 
 second part
100 %
 integral transformation is completed! 
 integral transformation: AOs ----- MOs (alpha-beta)
 size                   8192                     1
# of basis functions, # of int. blocks    32     1
 integral transformation
======================================== 
Wed Apr  4 00:16:02 EDT 2018
  ovirt terminated normally 

 ************************ 2018-04-04 00:16:23 *************************
 Executing goldstone...

 Generation of CC equations in terms of H and T...
 Generation of antisymmetrized Goldstone diagrams...
 Number of diagrams in T^1 equations:    15
 Number of diagrams in T^2 equations:    38
 Number of diagrams in T^3 equations:    53
 Number of diagrams in T^4 equations:    74
 Translation of diagrams to factorized equations...
 Optimizing intermediate calculation...
 Optimizing right-hand EOMCC calculation...
 Number of floating-point operations per iteration step:   8.6790E+07
 Probable CPU time per iteration step (hours):      0.00
 Required memory (Mbytes):      51.8
 Number of intermediates:                                 249
 Number of intermediates to be stored:                     96
 Length of intermediate file (Mbytes):       9.2

 ************************ 2018-04-04 00:16:35 *************************
 Executing xmrcc...

 **********************************************************************
 CC(                     4 ) calculation 
 
 
 Allocation of 100.0 Mbytes of memory...
 Number of spinorbitals:                    54
 Number of alpha electrons:                        3
 Number of beta electrons:                         1
 z-component of spin:  1.0
 Spatial symmetry:                      1
 Convergence criterion:  1.0E-05
 Spatial symmetry of ground state:                      2
 Construction of occupation graphs...
 Number of                     0 -fold excitations:                      0
 Number of                     1 -fold excitations:                     10
 Number of                     2 -fold excitations:                    328
 Number of                     3 -fold excitations:                   2950
 Number of                     4 -fold excitations:                   6558
 Total number of configurations:                   9846
 Number of ground state excitations: 
 Number of                     0 -fold excitations:                      1
 Number of                     1 -fold excitations:                     20
 Number of                     2 -fold excitations:                    357
 Number of                     3 -fold excitations:                   2895
 Number of                     4 -fold excitations:                   6612
 Total number of configurations:                   9885
 Calculation of coupling coefficients...
 Length of intermediate file (Mbytes):       5.5
 
 ======================================================================
 
 ======================================================================
 
 ======================================================================
 
 ======================================================================
 
 Memory requirements /Mbyte/: 
               Minimal        Optimal
 Real*8:         17.3575        20.5086
 Integer:         4.2649
 Total:          21.6225        24.7735
 

 ************************ 2018-04-04 00:16:38 *************************
 Executing goldstone...

 Generation of CC equations in terms of H and T...
 Generation of antisymmetrized Goldstone diagrams...
 Number of diagrams in T^1 equations:     8
 Translation of diagrams to factorized equations...
 Optimizing intermediate calculation...
 Optimizing right-hand EOMCC calculation...
 Number of floating-point operations per iteration step:   4.3154E+02
 Probable CPU time per iteration step (hours):      0.00
 Required memory (Mbytes):      51.8
 Number of intermediates:                                  19
 Number of intermediates to be stored:                      9
 Length of intermediate file (Mbytes):       0.0

 ************************ 2018-04-04 00:16:41 *************************
 Executing xmrcc...

 **********************************************************************
 CC(                     1 ) calculation 
 
 
 Allocation of 100.0 Mbytes of memory...
 Number of spinorbitals:                    54
 Number of alpha electrons:                        3
 Number of beta electrons:                         1
 z-component of spin:  1.0
 Spatial symmetry:                      1
 Convergence criterion:  1.0E-05
 Spatial symmetry of ground state:                      2
 Construction of occupation graphs...
 Number of                     0 -fold excitations:                      0
 Number of                     1 -fold excitations:                     10
 Total number of configurations:                     10
 Number of ground state excitations: 
 Number of                     0 -fold excitations:                      1
 Number of                     1 -fold excitations:                     20
 Total number of configurations:                     21
 Calculation of coupling coefficients...
 Length of intermediate file (Mbytes):       0.1
 
 ======================================================================
 
 ======================================================================
 
 ======================================================================
 
 ======================================================================
 
 Memory requirements /Mbyte/: 
               Minimal        Optimal
 Real*8:          0.1613         4.0696
 Integer:         3.3034
 Total:           3.4647         7.3730
 

 ************************ 2018-04-04 00:16:41 *************************
 Executing mrcc...

 **********************************************************************
 LR-CCS calculation                                                     
 
 
 OpenMP parallel version is running.
 Number of CPUs:  32
 Allocation of    4.1 Mbytes of memory...
 Number of spinorbitals:  54
 Number of alpha electrons:  3
 Number of beta  electrons:  1
 z-component of spin:  1.0
 Spatial symmetry: 1
 Convergence criterion:  1.0E-05
 Spatial symmetry of ground state:                      2
 Construction of occupation graphs...
 Number of excitations for irrep 1: 
 Number of 0-fold excitations: 1
 Number of 1-fold excitations: 20
 Total number of determinants: 21
 Number of excitations for irrep 2: 
 Number of 0-fold excitations: 0
 Number of 1-fold excitations: 10
 Total number of determinants: 10
 Calculation of coupling coefficients...
 Initial cluster amplitudes are generated.
 Length of intermediate file (Mbytes):       0.1
 Reading integral list from unit 55...
 Sorting integrals...
 Sorting integrals...
 Sorting integrals...
 Sorting integrals...
 Energy of reference determinant [au]:    -288.847062536596
 Calculation of diagonal elements of Hamiltonian...
 Calculation of MP denominators...
 
 Starting CC iteration...
 ======================================================================
 Norm of residual vector:     0.04857845
 CPU time [min]:     0.417                   Wall time [min]:     0.017
 
 Iteration  1  CC energy:  -288.84940753  Energy decrease:   0.00234499
 ======================================================================
 Norm of residual vector:     0.01827514
 CPU time [min]:     0.419                   Wall time [min]:     0.017
 
 Iteration  2  CC energy:  -288.85084329  Energy decrease:   0.00143576
 ======================================================================
 Norm of residual vector:     0.00074728
 CPU time [min]:     0.423                   Wall time [min]:     0.017
 
 Iteration  3  CC energy:  -288.85084462  Energy decrease:   0.00000133
 ======================================================================
 Norm of residual vector:     0.00011278
 CPU time [min]:     0.426                   Wall time [min]:     0.017
 
 Iteration  4  CC energy:  -288.85084709  Energy decrease:   0.00000247
 ======================================================================
 Norm of residual vector:     0.00001761
 CPU time [min]:     0.430                   Wall time [min]:     0.017
 
 Iteration  5  CC energy:  -288.85084630  Energy decrease:   0.00000079
 ======================================================================
 Norm of residual vector:     0.00000337
 CPU time [min]:     0.432                   Wall time [min]:     0.018
 
 Iteration  6  CC energy:  -288.85084644  Energy decrease:   0.00000015
 ======================================================================
 
 Iteration has converged in  6 steps.
 
 Final results:
 Total CCS energy [au]:             -288.850846444654
 Spin multiplicity:                     2
 
 
 
 Dominant cluster amplitudes
 Printing threshold:  1.00E-02
 
    1.000000  Reference determinant                                     
    0.047762  6b -> 14b                                                 
    0.038763  6b -> 23b                                                 
    0.039923  6a -> 18a                                                 
   -0.032863  6a -> 27a                                                 
 
 Starting right-hand LR-CC iteration for root                      2 ...
 ======================================================================
 Norm of residual vector:     0.04165546      Convergence:   1.00000000
 CPU time [min]:     0.448                   Wall time [min]:     0.018
 
 Iteration  1  CI energy:  -288.61748124  Energy decrease:   0.23336520
 ======================================================================
 Norm of residual vector:     0.03352777      Convergence:   0.23637603
 CPU time [min]:     0.454                   Wall time [min]:     0.018
 
 Iteration  2  CI energy:  -288.61767959  Energy decrease:   0.00019835
 ======================================================================
 Norm of residual vector:     0.02643452      Convergence:   0.02617173
 CPU time [min]:     0.459                   Wall time [min]:     0.018
 
 Iteration  3  CI energy:  -288.61699856  Energy decrease:   0.00068103
 ======================================================================
 Norm of residual vector:     0.00033077      Convergence:   0.08034560
 CPU time [min]:     0.465                   Wall time [min]:     0.019
 
 Iteration  4  CI energy:  -288.61912261  Energy decrease:   0.00212405
 ======================================================================
 Norm of residual vector:     0.00003023      Convergence:   0.00044719
 CPU time [min]:     0.472                   Wall time [min]:     0.019
 
 Iteration  5  CI energy:  -288.61912273  Energy decrease:   0.00000012
 ======================================================================
 Norm of residual vector:     0.0000E+00      Convergence:   8.2123E-05
 CPU time [min]:     0.478                   Wall time [min]:     0.019
 
 Iteration  6  CI energy:  -288.61912273  Energy decrease:   2.3801E-09
 ======================================================================
 
 Iteration has converged in  6 steps.
 
 Final results:
 Total LR-CCS energy [au]:          -288.619122731078
 Excitation energy [eV]:           6.3055
 Excitation energy [cm^-1]:    50857.48
 Absorption wavelength [nm]:     196.63
 Spin multiplicity:                     2
 
 
 
 Dominant CI coefficients
 Printing threshold:  1.00E-02
 
    0.702392  7a -> 11a                                                 
    0.081516  7a -> 19a                                                 
   -0.702392  8a -> 12a                                                 
   -0.081517  8a -> 20a                                                 
 
 Starting right-hand LR-CC iteration for root                      3 ...
 ======================================================================
 Norm of residual vector:     0.04165546      Convergence:   1.00000000
 CPU time [min]:     0.481                   Wall time [min]:     0.019
 
 Iteration  1  CI energy:  -288.61748124  Energy decrease:   0.23336520
 ======================================================================
 Norm of residual vector:     0.03352777      Convergence:   0.23637603
 CPU time [min]:     0.485                   Wall time [min]:     0.019
 
 Iteration  2  CI energy:  -288.61767959  Energy decrease:   0.00019835
 ======================================================================
 Norm of residual vector:     0.02643452      Convergence:   0.02617173
 CPU time [min]:     0.491                   Wall time [min]:     0.020
 
 Iteration  3  CI energy:  -288.61699856  Energy decrease:   0.00068103
 ======================================================================
 Norm of residual vector:     0.00033077      Convergence:   0.08034560
 CPU time [min]:     0.496                   Wall time [min]:     0.020
 
 Iteration  4  CI energy:  -288.61912261  Energy decrease:   0.00212405
 ======================================================================
 Norm of residual vector:     0.00003023      Convergence:   0.00044719
 CPU time [min]:     0.503                   Wall time [min]:     0.020
 
 Iteration  5  CI energy:  -288.61912273  Energy decrease:   0.00000012
 ======================================================================
 Norm of residual vector:     0.0000E+00      Convergence:   8.2123E-05
 CPU time [min]:     0.509                   Wall time [min]:     0.020
 
 Iteration  6  CI energy:  -288.61912273  Energy decrease:   2.3801E-09
 ======================================================================
 
 Iteration has converged in  6 steps.
 
 Final results:
 Total LR-CCS energy [au]:          -288.619122731078
 Excitation energy [eV]:           6.3055
 Excitation energy [cm^-1]:    50857.48
 Absorption wavelength [nm]:     196.63
 Spin multiplicity:                     2
 
 
 
 Dominant CI coefficients
 Printing threshold:  1.00E-02
 
   -0.702392  7a -> 11a                                                 
   -0.081517  7a -> 19a                                                 
    0.702392  8a -> 12a                                                 
    0.081516  8a -> 20a                                                 
 
 Starting right-hand LR-CC iteration for root                      4 ...
 ======================================================================
 Norm of residual vector:     0.04975111      Convergence:   1.00000000
 CPU time [min]:     0.513                   Wall time [min]:     0.020
 
 Iteration  1  CI energy:  -288.35829107  Energy decrease:   0.49255537
 ======================================================================
 Norm of residual vector:     0.01334309      Convergence:   0.20609784
 CPU time [min]:     0.517                   Wall time [min]:     0.020
 
 Iteration  2  CI energy:  -288.36708937  Energy decrease:   0.00879830
 ======================================================================
 Norm of residual vector:     0.00183037      Convergence:   0.03338026
 CPU time [min]:     0.521                   Wall time [min]:     0.021
 
 Iteration  3  CI energy:  -288.36745290  Energy decrease:   0.00036352
 ======================================================================
 Norm of residual vector:     0.00063372      Convergence:   0.00486168
 CPU time [min]:     0.527                   Wall time [min]:     0.021
 
 Iteration  4  CI energy:  -288.36745655  Energy decrease:   0.00000365
 ======================================================================
 Norm of residual vector:     0.00005539      Convergence:   0.00110855
 CPU time [min]:     0.533                   Wall time [min]:     0.021
 
 Iteration  5  CI energy:  -288.36745631  Energy decrease:   0.00000023
 ======================================================================
 Norm of residual vector:     0.00007076      Convergence:   0.00042959
 CPU time [min]:     0.540                   Wall time [min]:     0.021
 
 Iteration  6  CI energy:  -288.36745634  Energy decrease:   0.00000002
 ======================================================================
 Norm of residual vector:     0.0000E+00      Convergence:   1.6884E-05
 CPU time [min]:     0.549                   Wall time [min]:     0.022
 
 Iteration  7  CI energy:  -288.36745633  Energy decrease:   2.0627E-09
 ======================================================================
 
 Iteration has converged in  7 steps.
 
 Final results:
 Total LR-CCS energy [au]:          -288.367456334330
 Excitation energy [eV]:          13.1537
 Excitation energy [cm^-1]:   106091.87
 Absorption wavelength [nm]:      94.26
 Spin multiplicity:                     2
 
 Dominant CI coefficients
 Printing threshold:  1.00E-02
 
    0.973636  6b -> 15b                                                 
   -0.133893  6b -> 24b                                                 
   -0.174494  6a -> 15a                                                 
    0.058818  6a -> 24a                                                 

 ************************ 2018-04-04 00:16:44 *************************
 Executing goldstone...

 Generation of CC equations in terms of H and T...
 Generation of antisymmetrized Goldstone diagrams...
 Number of diagrams in T^1 equations:    14
 Number of diagrams in T^2 equations:    31
 Translation of diagrams to factorized equations...
 Optimizing intermediate calculation...
 Optimizing right-hand EOMCC calculation...
 Number of floating-point operations per iteration step:   3.4326E+05
 Probable CPU time per iteration step (hours):      0.00
 Required memory (Mbytes):      51.8
 Number of intermediates:                                  84
 Number of intermediates to be stored:                     36
 Length of intermediate file (Mbytes):       1.1

 ************************ 2018-04-04 00:16:48 *************************
 Executing xmrcc...

 **********************************************************************
 CC(                     2 ) calculation 
 
 
 Allocation of 100.0 Mbytes of memory...
 Number of spinorbitals:                    54
 Number of alpha electrons:                        3
 Number of beta electrons:                         1
 z-component of spin:  1.0
 Spatial symmetry:                      1
 Convergence criterion:  1.0E-05
 Spatial symmetry of ground state:                      2
 Construction of occupation graphs...
 Number of                     0 -fold excitations:                      0
 Number of                     1 -fold excitations:                     10
 Number of                     2 -fold excitations:                    328
 Total number of configurations:                    338
 Number of ground state excitations: 
 Number of                     0 -fold excitations:                      1
 Number of                     1 -fold excitations:                     20
 Number of                     2 -fold excitations:                    357
 Total number of configurations:                    378
 Calculation of coupling coefficients...
 Length of intermediate file (Mbytes):       1.2
 
 ======================================================================
 
 ======================================================================
 
 ======================================================================
 
 ======================================================================
 
 Memory requirements /Mbyte/: 
               Minimal        Optimal
 Real*8:          1.9218         5.5558
 Integer:         3.4488
 Total:           5.3707         9.0047
 

 ************************ 2018-04-04 00:16:49 *************************
 Executing mrcc...

 **********************************************************************
 LR-CCSD calculation                                                    
 
 
 OpenMP parallel version is running.
 Number of CPUs:  32
 Allocation of    5.6 Mbytes of memory...
 Number of spinorbitals:  54
 Number of alpha electrons:  3
 Number of beta  electrons:  1
 z-component of spin:  1.0
 Spatial symmetry: 1
 Convergence criterion:  1.0E-05
 Spatial symmetry of ground state:                      2
 Construction of occupation graphs...
 Number of excitations for irrep 1: 
 Number of 0-fold excitations: 1
 Number of 1-fold excitations: 20
 Number of 2-fold excitations: 357
 Total number of determinants: 378
 Number of excitations for irrep 2: 
 Number of 0-fold excitations: 0
 Number of 1-fold excitations: 10
 Number of 2-fold excitations: 328
 Total number of determinants: 338
 Calculation of coupling coefficients...
 Initial cluster amplitudes are read from unit 16.
 Length of intermediate file (Mbytes):       1.2
 Reading integral list from unit 55...
 Sorting integrals...
 Sorting integrals...
 Sorting integrals...
 Sorting integrals...
 Energy of reference determinant [au]:    -288.847062536596
 Calculation of diagonal elements of Hamiltonian...
 Calculation of MP denominators...
 
 Starting CC iteration...
 ======================================================================
 Norm of residual vector:     0.26915663
 CPU time [min]:     0.472                   Wall time [min]:     0.025
 
 Iteration  1  CC energy:  -288.89899462  Energy decrease:   0.04803491
 ======================================================================
 Norm of residual vector:     0.07936977
 CPU time [min]:     0.559                   Wall time [min]:     0.028
 
 Iteration  2  CC energy:  -288.91717503  Energy decrease:   0.01818041
 ======================================================================
 Norm of residual vector:     0.01725678
 CPU time [min]:     0.642                   Wall time [min]:     0.031
 
 Iteration  3  CC energy:  -288.91748821  Energy decrease:   0.00031318
 ======================================================================
 Norm of residual vector:     0.00513276
 CPU time [min]:     0.733                   Wall time [min]:     0.034
 
 Iteration  4  CC energy:  -288.91838796  Energy decrease:   0.00089975
 ======================================================================
 Norm of residual vector:     0.00136475
 CPU time [min]:     0.825                   Wall time [min]:     0.037
 
 Iteration  5  CC energy:  -288.91813901  Energy decrease:   0.00024895
 ======================================================================
 Norm of residual vector:     0.00033244
 CPU time [min]:     1.016                   Wall time [min]:     0.044
 
 Iteration  6  CC energy:  -288.91820576  Energy decrease:   0.00006675
 ======================================================================
 Norm of residual vector:     0.00009111
 CPU time [min]:     1.108                   Wall time [min]:     0.047
 
 Iteration  7  CC energy:  -288.91818731  Energy decrease:   0.00001845
 ======================================================================
 Norm of residual vector:     0.00001520
 CPU time [min]:     1.209                   Wall time [min]:     0.050
 
 Iteration  8  CC energy:  -288.91818866  Energy decrease:   0.00000135
 ======================================================================
 Norm of residual vector:     0.00000293
 CPU time [min]:     1.326                   Wall time [min]:     0.054
 
 Iteration  9  CC energy:  -288.91818860  Energy decrease:   0.00000006
 ======================================================================
 
 Iteration has converged in  9 steps.
 
 Final results:
 Total CCSD energy [au]:            -288.918188596860
 Spin multiplicity:                     2
 
 
 
 Dominant cluster amplitudes
 Printing threshold:  1.00E-02
 
    1.000000  Reference determinant                                     
    0.047756  6b -> 14b                                                 
    0.040467  6b -> 23b                                                 
   -0.010019  6a -> 10a                                                 
    0.017668  6a -> 18a                                                 
   -0.017754  6a -> 27a                                                 
   -0.011341  6a 6b -> 22a 10b                                          
    0.011795  6a 6b -> 14a 18b                                          
   -0.010093  6a 6b -> 23a 18b                                          
    0.012123  6a 6b -> 10a 22b                                          
    0.019391  6a 6b -> 22a 22b                                          
   -0.013601  6a 6b -> 27a 23b                                          
   -0.015667  6a 6b -> 14a 27b                                          
    0.018047  6a 6b -> 23a 27b                                          
   -0.011795  6a 6b -> 15a 15b                                          
    0.010093  6a 6b -> 24a 15b                                          
    0.015667  6a 6b -> 15a 24b                                          
   -0.018047  6a 6b -> 24a 24b                                          
    0.011915  6a 6b -> 17a 25b                                          
   -0.015262  6a 6b -> 25a 25b                                          
    0.011915  6a 6b -> 16a 26b                                          
   -0.015262  6a 6b -> 26a 26b                                          
   -0.078917  6a 6b -> 9a 9b                                            
    0.041008  6a 6b -> 13a 9b                                           
    0.028706  6a 6b -> 21a 9b                                           
    0.060603  6a 6b -> 9a 13b                                           
   -0.031951  6a 6b -> 13a 13b                                          
   -0.023581  6a 6b -> 21a 13b                                          
    0.035282  6a 6b -> 9a 21b                                           
   -0.019818  6a 6b -> 13a 21b                                          
   -0.019167  6a 6b -> 21a 21b                                          
   -0.010703  6a 6b -> 11a 8b                                           
   -0.013203  6a 6b -> 19a 8b                                           
    0.013148  6a 6b -> 11a 11b                                          
    0.017525  6a 6b -> 19a 11b                                          
   -0.010050  6a 6b -> 11a 19b                                          
   -0.018413  6a 6b -> 19a 19b                                          
   -0.010703  6a 6b -> 12a 7b                                           
   -0.013203  6a 6b -> 20a 7b                                           
    0.013148  6a 6b -> 12a 12b                                          
    0.017525  6a 6b -> 20a 12b                                          
   -0.010050  6a 6b -> 12a 20b                                          
   -0.018413  6a 6b -> 20a 20b                                          
    0.036050  8a 6b -> 14a 8b                                           
    0.022392  8a 6b -> 18a 8b                                           
   -0.026814  8a 6b -> 23a 8b                                           
   -0.017914  8a 6b -> 27a 8b                                           
   -0.038011  8a 6b -> 14a 11b                                          
   -0.023430  8a 6b -> 18a 11b                                          
    0.030671  8a 6b -> 23a 11b                                          
    0.020453  8a 6b -> 27a 11b                                          
    0.015071  8a 6b -> 14a 19b                                          
   -0.017825  8a 6b -> 23a 19b                                          
   -0.011742  8a 6b -> 27a 19b                                          
   -0.036050  8a 6b -> 15a 7b                                           
    0.026814  8a 6b -> 24a 7b                                           
    0.038011  8a 6b -> 15a 12b                                          
   -0.030671  8a 6b -> 24a 12b                                          
   -0.015071  8a 6b -> 15a 20b                                          
    0.017825  8a 6b -> 24a 20b                                          
   -0.043058  8a 6b -> 16a 9b                                           
    0.034720  8a 6b -> 26a 9b                                           
    0.031552  8a 6b -> 16a 13b                                          
   -0.027708  8a 6b -> 26a 13b                                          
    0.013895  8a 6b -> 16a 21b                                          
   -0.017992  8a 6b -> 26a 21b                                          
   -0.030249  8a 6b -> 9a 16b                                           
    0.014277  8a 6b -> 13a 16b                                          
    0.030884  8a 6b -> 9a 26b                                           
   -0.015985  8a 6b -> 13a 26b                                          
   -0.010411  8a 6b -> 21a 26b                                          
   -0.010083  8a 6b -> 11a 10b                                          
   -0.017084  8a 6b -> 19a 10b                                          
    0.010458  8a 6b -> 11a 22b                                          
    0.023766  8a 6b -> 19a 22b                                          
   -0.036050  7a 6b -> 14a 7b                                           
    0.022392  7a 6b -> 18a 7b                                           
    0.026814  7a 6b -> 23a 7b                                           
   -0.017914  7a 6b -> 27a 7b                                           
    0.038011  7a 6b -> 14a 12b                                          
   -0.023430  7a 6b -> 18a 12b                                          
   -0.030671  7a 6b -> 23a 12b                                          
    0.020453  7a 6b -> 27a 12b                                          
   -0.015071  7a 6b -> 14a 20b                                          
    0.017825  7a 6b -> 23a 20b                                          
   -0.011742  7a 6b -> 27a 20b                                          
   -0.036050  7a 6b -> 15a 8b                                           
    0.026814  7a 6b -> 24a 8b                                           
    0.038011  7a 6b -> 15a 11b                                          
   -0.030671  7a 6b -> 24a 11b                                          
   -0.015071  7a 6b -> 15a 19b                                          
    0.017825  7a 6b -> 24a 19b                                          
   -0.043058  7a 6b -> 17a 9b                                           
    0.034720  7a 6b -> 25a 9b                                           
    0.031552  7a 6b -> 17a 13b                                          
   -0.027708  7a 6b -> 25a 13b                                          
    0.013895  7a 6b -> 17a 21b                                          
   -0.017992  7a 6b -> 25a 21b                                          
   -0.030249  7a 6b -> 9a 17b                                           
    0.014277  7a 6b -> 13a 17b                                          
    0.030884  7a 6b -> 9a 25b                                           
   -0.015985  7a 6b -> 13a 25b                                          
   -0.010411  7a 6b -> 21a 25b                                          
   -0.010083  7a 6b -> 12a 10b                                          
   -0.017084  7a 6b -> 20a 10b                                          
    0.010458  7a 6b -> 12a 22b                                          
    0.023766  7a 6b -> 20a 22b                                          
    0.011866  7a 8a -> 11a 12a                                          
   -0.041396  7a 8a -> 14a 15a                                          
    0.020039  7a 8a -> 16a 17a                                          
   -0.015203  7a 8a -> 12a 19a                                          
    0.015203  7a 8a -> 11a 20a                                          
    0.025002  7a 8a -> 19a 20a                                          
   -0.023073  7a 8a -> 15a 23a                                          
    0.023073  7a 8a -> 14a 24a                                          
   -0.021561  7a 8a -> 23a 24a                                          
   -0.011821  7a 8a -> 16a 25a                                          
    0.011821  7a 8a -> 17a 26a                                          
   -0.011382  7a 8a -> 25a 26a                                          
   -0.019593  6a 8a -> 9a 16a                                           
    0.010266  6a 8a -> 13a 16a                                          
   -0.010575  6a 8a -> 10a 19a                                          
    0.015506  6a 8a -> 19a 22a                                          
    0.012662  6a 8a -> 9a 26a                                           
   -0.019593  6a 7a -> 9a 17a                                           
    0.010266  6a 7a -> 13a 17a                                          
   -0.010575  6a 7a -> 10a 20a                                          
    0.015506  6a 7a -> 20a 22a                                          
    0.012662  6a 7a -> 9a 25a                                           
 
 Starting right-hand LR-CC iteration for root                      2 ...
 ======================================================================
 Norm of residual vector:     0.14633400      Convergence:   1.00000000
 CPU time [min]:     1.519                   Wall time [min]:     0.061
 
 Iteration  1  CI energy:  -288.66028139  Energy decrease:   0.25790720
 ======================================================================
 Norm of residual vector:     0.08713053      Convergence:   0.29916430
 CPU time [min]:     1.604                   Wall time [min]:     0.064
 
 Iteration  2  CI energy:  -288.67405353  Energy decrease:   0.01377214
 ======================================================================
 Norm of residual vector:     0.03341357      Convergence:   0.19064627
 CPU time [min]:     1.669                   Wall time [min]:     0.066
 
 Iteration  3  CI energy:  -288.68983714  Energy decrease:   0.01578361
 ======================================================================
 Norm of residual vector:     0.01291648      Convergence:   0.05325978
 CPU time [min]:     1.736                   Wall time [min]:     0.068
 
 Iteration  4  CI energy:  -288.69126901  Energy decrease:   0.00143187
 ======================================================================
 Norm of residual vector:     0.00475752      Convergence:   0.02414323
 CPU time [min]:     1.829                   Wall time [min]:     0.071
 
 Iteration  5  CI energy:  -288.69155460  Energy decrease:   0.00028559
 ======================================================================
 Norm of residual vector:     0.00112493      Convergence:   0.00625444
 CPU time [min]:     1.908                   Wall time [min]:     0.074
 
 Iteration  6  CI energy:  -288.69159145  Energy decrease:   0.00003685
 ======================================================================
 Norm of residual vector:     0.00029240      Convergence:   0.00152848
 CPU time [min]:     2.107                   Wall time [min]:     0.080
 
 Iteration  7  CI energy:  -288.69159629  Energy decrease:   0.00000484
 ======================================================================
 Norm of residual vector:     0.00016645      Convergence:   0.00097603
 CPU time [min]:     2.201                   Wall time [min]:     0.083
 
 Iteration  8  CI energy:  -288.69159660  Energy decrease:   0.00000031
 ======================================================================
 Norm of residual vector:     0.00007759      Convergence:   0.00040743
 CPU time [min]:     2.278                   Wall time [min]:     0.086
 
 Iteration  9  CI energy:  -288.69159674  Energy decrease:   0.00000013
 ======================================================================
 Norm of residual vector:     0.00001828      Convergence:   0.00010960
 CPU time [min]:     2.372                   Wall time [min]:     0.089
 
 Iteration 10  CI energy:  -288.69159686  Energy decrease:   0.00000012
 ======================================================================
 Norm of residual vector:     0.0000E+00      Convergence:   2.9257E-05
 CPU time [min]:     2.448                   Wall time [min]:     0.092
 
 Iteration 11  CI energy:  -288.69159675  Energy decrease:   0.00000010
 ======================================================================
 
 Iteration has converged in 11 steps.
 
 Final results:
 Total LR-CCSD energy [au]:         -288.691596754777
 Excitation energy [eV]:           6.1659
 Excitation energy [cm^-1]:    49731.16
 Absorption wavelength [nm]:     201.08
 Spin multiplicity:                     2
 
 
 
 Dominant CI coefficients
 Printing threshold:  1.00E-02
 
   -0.684600  7a -> 11a                                                 
   -0.086062  7a -> 19a                                                 
    0.684602  8a -> 12a                                                 
    0.086062  8a -> 20a                                                 
    0.047983  6a 6b -> 11a 7b                                           
   -0.055538  6a 6b -> 11a 12b                                          
    0.034336  6a 6b -> 11a 20b                                          
   -0.047983  6a 6b -> 12a 8b                                           
    0.055538  6a 6b -> 12a 11b                                          
   -0.034336  6a 6b -> 12a 19b                                          
   -0.023176  7a 6b -> 10a 8b                                           
   -0.010958  7a 6b -> 23a 8b                                           
    0.022324  7a 6b -> 10a 11b                                          
    0.012265  7a 6b -> 23a 11b                                          
    0.010958  7a 6b -> 24a 7b                                           
   -0.012265  7a 6b -> 24a 12b                                          
    0.013023  7a 6b -> 26a 9b                                           
   -0.010223  7a 6b -> 26a 13b                                          
    0.033034  7a 6b -> 11a 10b                                          
    0.013509  7a 6b -> 11a 14b                                          
   -0.020306  7a 6b -> 11a 18b                                          
   -0.026575  7a 6b -> 11a 22b                                          
    0.014383  7a 6b -> 11a 23b                                          
    0.025962  7a 6b -> 11a 27b                                          
   -0.020306  7a 6b -> 12a 15b                                          
    0.025962  7a 6b -> 12a 24b                                          
    0.023177  8a 6b -> 10a 7b                                           
   -0.010958  8a 6b -> 23a 7b                                           
   -0.022324  8a 6b -> 10a 12b                                          
    0.012265  8a 6b -> 23a 12b                                          
   -0.010959  8a 6b -> 24a 8b                                           
    0.012265  8a 6b -> 24a 11b                                          
   -0.013023  8a 6b -> 25a 9b                                           
    0.010223  8a 6b -> 25a 13b                                          
    0.020306  8a 6b -> 11a 15b                                          
   -0.025962  8a 6b -> 11a 24b                                          
   -0.033034  8a 6b -> 12a 10b                                          
   -0.013509  8a 6b -> 12a 14b                                          
   -0.020306  8a 6b -> 12a 18b                                          
    0.026575  8a 6b -> 12a 22b                                          
   -0.014383  8a 6b -> 12a 23b                                          
    0.025962  8a 6b -> 12a 27b                                          
   -0.072885  7a 8a -> 9a 13a                                           
    0.021977  7a 8a -> 10a 18a                                          
    0.058807  7a 8a -> 11a 19a                                          
    0.058807  7a 8a -> 12a 20a                                          
   -0.018983  7a 8a -> 9a 21a                                           
    0.020752  7a 8a -> 10a 22a                                          
   -0.017854  7a 8a -> 14a 23a                                          
   -0.017854  7a 8a -> 15a 24a                                          
   -0.011962  7a 8a -> 10a 27a                                          
    0.031388  6a 7a -> 10a 11a                                          
    0.012871  6a 7a -> 11a 14a                                          
   -0.012871  6a 7a -> 12a 15a                                          
   -0.011655  6a 7a -> 11a 18a                                          
   -0.031806  6a 7a -> 11a 22a                                          
   -0.013111  6a 7a -> 11a 23a                                          
    0.013111  6a 7a -> 12a 24a                                          
    0.011532  6a 7a -> 9a 26a                                           
   -0.031388  6a 8a -> 10a 12a                                          
    0.012871  6a 8a -> 12a 14a                                          
    0.012870  6a 8a -> 11a 15a                                          
    0.011656  6a 8a -> 12a 18a                                          
    0.031806  6a 8a -> 12a 22a                                          
   -0.013111  6a 8a -> 12a 23a                                          
   -0.013111  6a 8a -> 11a 24a                                          
   -0.011532  6a 8a -> 9a 25a                                           
 
 Starting right-hand LR-CC iteration for root                      3 ...
 ======================================================================
 Norm of residual vector:     0.14633400      Convergence:   1.00000000
 CPU time [min]:     2.519                   Wall time [min]:     0.094
 
 Iteration  1  CI energy:  -288.66028139  Energy decrease:   0.25790720
 ======================================================================
 Norm of residual vector:     0.08713053      Convergence:   0.29916430
 CPU time [min]:     2.585                   Wall time [min]:     0.096
 
 Iteration  2  CI energy:  -288.67405353  Energy decrease:   0.01377214
 ======================================================================
 Norm of residual vector:     0.03341357      Convergence:   0.19064627
 CPU time [min]:     2.665                   Wall time [min]:     0.099
 
 Iteration  3  CI energy:  -288.68983714  Energy decrease:   0.01578361
 ======================================================================
 Norm of residual vector:     0.01291648      Convergence:   0.05325978
 CPU time [min]:     2.748                   Wall time [min]:     0.102
 
 Iteration  4  CI energy:  -288.69126901  Energy decrease:   0.00143187
 ======================================================================
 Norm of residual vector:     0.00475752      Convergence:   0.02414323
 CPU time [min]:     2.836                   Wall time [min]:     0.105
 
 Iteration  5  CI energy:  -288.69155460  Energy decrease:   0.00028559
 ======================================================================
 Norm of residual vector:     0.00112493      Convergence:   0.00625444
 CPU time [min]:     2.919                   Wall time [min]:     0.107
 
 Iteration  6  CI energy:  -288.69159145  Energy decrease:   0.00003685
 ======================================================================
 Norm of residual vector:     0.00029240      Convergence:   0.00152848
 CPU time [min]:     3.011                   Wall time [min]:     0.110
 
 Iteration  7  CI energy:  -288.69159629  Energy decrease:   0.00000484
 ======================================================================
 Norm of residual vector:     0.00016645      Convergence:   0.00097603
 CPU time [min]:     3.088                   Wall time [min]:     0.113
 
 Iteration  8  CI energy:  -288.69159660  Energy decrease:   0.00000031
 ======================================================================
 Norm of residual vector:     0.00007759      Convergence:   0.00040743
 CPU time [min]:     3.295                   Wall time [min]:     0.120
 
 Iteration  9  CI energy:  -288.69159674  Energy decrease:   0.00000013
 ======================================================================
 Norm of residual vector:     0.00001828      Convergence:   0.00010960
 CPU time [min]:     3.383                   Wall time [min]:     0.123
 
 Iteration 10  CI energy:  -288.69159686  Energy decrease:   0.00000012
 ======================================================================
 Norm of residual vector:     0.0000E+00      Convergence:   2.9257E-05
 CPU time [min]:     3.457                   Wall time [min]:     0.125
 
 Iteration 11  CI energy:  -288.69159675  Energy decrease:   0.00000010
 ======================================================================
 
 Iteration has converged in 11 steps.
 
 Final results:
 Total LR-CCSD energy [au]:         -288.691596754777
 Excitation energy [eV]:           6.1659
 Excitation energy [cm^-1]:    49731.16
 Absorption wavelength [nm]:     201.08
 Spin multiplicity:                     2
 
 
 
 Dominant CI coefficients
 Printing threshold:  1.00E-02
 
    0.684602  7a -> 11a                                                 
    0.086062  7a -> 19a                                                 
   -0.684600  8a -> 12a                                                 
   -0.086062  8a -> 20a                                                 
   -0.047983  6a 6b -> 11a 7b                                           
    0.055538  6a 6b -> 11a 12b                                          
   -0.034336  6a 6b -> 11a 20b                                          
    0.047983  6a 6b -> 12a 8b                                           
   -0.055538  6a 6b -> 12a 11b                                          
    0.034336  6a 6b -> 12a 19b                                          
    0.023177  7a 6b -> 10a 8b                                           
    0.010958  7a 6b -> 23a 8b                                           
   -0.022324  7a 6b -> 10a 11b                                          
   -0.012265  7a 6b -> 23a 11b                                          
   -0.010959  7a 6b -> 24a 7b                                           
    0.012265  7a 6b -> 24a 12b                                          
   -0.013023  7a 6b -> 26a 9b                                           
    0.010223  7a 6b -> 26a 13b                                          
   -0.033034  7a 6b -> 11a 10b                                          
   -0.013509  7a 6b -> 11a 14b                                          
    0.020306  7a 6b -> 11a 18b                                          
    0.026575  7a 6b -> 11a 22b                                          
   -0.014383  7a 6b -> 11a 23b                                          
   -0.025962  7a 6b -> 11a 27b                                          
    0.020306  7a 6b -> 12a 15b                                          
   -0.025962  7a 6b -> 12a 24b                                          
   -0.023176  8a 6b -> 10a 7b                                           
    0.010958  8a 6b -> 23a 7b                                           
    0.022324  8a 6b -> 10a 12b                                          
   -0.012265  8a 6b -> 23a 12b                                          
    0.010958  8a 6b -> 24a 8b                                           
   -0.012265  8a 6b -> 24a 11b                                          
    0.013023  8a 6b -> 25a 9b                                           
   -0.010223  8a 6b -> 25a 13b                                          
   -0.020306  8a 6b -> 11a 15b                                          
    0.025962  8a 6b -> 11a 24b                                          
    0.033034  8a 6b -> 12a 10b                                          
    0.013509  8a 6b -> 12a 14b                                          
    0.020306  8a 6b -> 12a 18b                                          
   -0.026575  8a 6b -> 12a 22b                                          
    0.014383  8a 6b -> 12a 23b                                          
   -0.025962  8a 6b -> 12a 27b                                          
    0.072885  7a 8a -> 9a 13a                                           
   -0.021977  7a 8a -> 10a 18a                                          
   -0.058807  7a 8a -> 11a 19a                                          
   -0.058807  7a 8a -> 12a 20a                                          
    0.018983  7a 8a -> 9a 21a                                           
   -0.020752  7a 8a -> 10a 22a                                          
    0.017854  7a 8a -> 14a 23a                                          
    0.017854  7a 8a -> 15a 24a                                          
    0.011962  7a 8a -> 10a 27a                                          
   -0.031388  6a 7a -> 10a 11a                                          
   -0.012871  6a 7a -> 11a 14a                                          
    0.012870  6a 7a -> 12a 15a                                          
    0.011656  6a 7a -> 11a 18a                                          
    0.031806  6a 7a -> 11a 22a                                          
    0.013111  6a 7a -> 11a 23a                                          
   -0.013111  6a 7a -> 12a 24a                                          
   -0.011532  6a 7a -> 9a 26a                                           
    0.031388  6a 8a -> 10a 12a                                          
   -0.012871  6a 8a -> 12a 14a                                          
   -0.012871  6a 8a -> 11a 15a                                          
   -0.011655  6a 8a -> 12a 18a                                          
   -0.031806  6a 8a -> 12a 22a                                          
    0.013111  6a 8a -> 12a 23a                                          
    0.013111  6a 8a -> 11a 24a                                          
    0.011532  6a 8a -> 9a 25a                                           
 
 Starting right-hand LR-CC iteration for root                      4 ...
 ======================================================================
 Norm of residual vector:     0.15377507      Convergence:   1.00000000
 CPU time [min]:     3.517                   Wall time [min]:     0.127
 
 Iteration  1  CI energy:  -288.37795889  Energy decrease:   0.54022971
 ======================================================================
 Norm of residual vector:     0.10386832      Convergence:   0.45874229
 CPU time [min]:     3.578                   Wall time [min]:     0.129
 
 Iteration  2  CI energy:  -288.42381686  Energy decrease:   0.04585798
 ======================================================================
 Norm of residual vector:     0.06502787      Convergence:   0.25157638
 CPU time [min]:     3.641                   Wall time [min]:     0.131
 
 Iteration  3  CI energy:  -288.44566990  Energy decrease:   0.02185303
 ======================================================================
 Norm of residual vector:     0.05774907      Convergence:   0.28993058
 CPU time [min]:     3.710                   Wall time [min]:     0.133
 
 Iteration  4  CI energy:  -288.45991553  Energy decrease:   0.01424564
 ======================================================================
 Norm of residual vector:     0.02831092      Convergence:   0.15660419
 CPU time [min]:     3.772                   Wall time [min]:     0.135
 
 Iteration  5  CI energy:  -288.46874709  Energy decrease:   0.00883155
 ======================================================================
 Norm of residual vector:     0.07293685      Convergence:   0.32646839
 CPU time [min]:     3.840                   Wall time [min]:     0.137
 
 Iteration  6  CI energy:  -288.39619179  Energy decrease:   0.07255530
 ======================================================================
 Norm of residual vector:     0.01443264      Convergence:   0.03591838
 CPU time [min]:     3.907                   Wall time [min]:     0.140
 
 Iteration  7  CI energy:  -288.47073230  Energy decrease:   0.07454051
 ======================================================================
 Norm of residual vector:     0.00971572      Convergence:   0.05557139
 CPU time [min]:     3.975                   Wall time [min]:     0.142
 
 Iteration  8  CI energy:  -288.47182780  Energy decrease:   0.00109550
 ======================================================================
 Norm of residual vector:     0.00581403      Convergence:   0.02981763
 CPU time [min]:     4.043                   Wall time [min]:     0.144
 
 Iteration  9  CI energy:  -288.47207864  Energy decrease:   0.00025084
 ======================================================================
 Norm of residual vector:     0.00330285      Convergence:   0.01816389
 CPU time [min]:     4.114                   Wall time [min]:     0.146
 
 Iteration 10  CI energy:  -288.47213525  Energy decrease:   0.00005661
 ======================================================================
 Norm of residual vector:     0.00198322      Convergence:   0.00724822
 CPU time [min]:     4.191                   Wall time [min]:     0.149
 
 Iteration 11  CI energy:  -288.47217172  Energy decrease:   0.00003647
 ======================================================================
 Norm of residual vector:     0.00711108      Convergence:   0.01342437
 CPU time [min]:     4.266                   Wall time [min]:     0.151
 
 Iteration 12  CI energy:  -288.47212589  Energy decrease:   0.00004583
 ======================================================================
 Norm of residual vector:     0.00805053      Convergence:   0.00722081
 CPU time [min]:     4.308                   Wall time [min]:     0.152
 
 Iteration 13  CI energy:  -288.47212048  Energy decrease:   0.00000541
 ======================================================================
 Norm of residual vector:     0.00111102      Convergence:   0.00638801
 CPU time [min]:     4.351                   Wall time [min]:     0.154
 
 Iteration 14  CI energy:  -288.47220842  Energy decrease:   0.00008795
 ======================================================================
 Norm of residual vector:     0.00076905      Convergence:   0.00298424
 CPU time [min]:     4.401                   Wall time [min]:     0.155
 
 Iteration 15  CI energy:  -288.47219729  Energy decrease:   0.00001113
 ======================================================================
 Norm of residual vector:     0.00063183      Convergence:   0.00287325
 CPU time [min]:     4.463                   Wall time [min]:     0.157
 
 Iteration 16  CI energy:  -288.47218961  Energy decrease:   0.00000768
 ======================================================================
 Norm of residual vector:     0.00055814      Convergence:   0.00255329
 CPU time [min]:     4.511                   Wall time [min]:     0.159
 
 Iteration 17  CI energy:  -288.47218931  Energy decrease:   0.00000030
 ======================================================================
 Norm of residual vector:     0.00023942      Convergence:   0.00123885
 CPU time [min]:     4.573                   Wall time [min]:     0.161
 
 Iteration 18  CI energy:  -288.47218947  Energy decrease:   0.00000015
 ======================================================================
 Norm of residual vector:     0.00010466      Convergence:   0.00050097
 CPU time [min]:     4.626                   Wall time [min]:     0.162
 
 Iteration 19  CI energy:  -288.47218797  Energy decrease:   0.00000150
 ======================================================================
 Norm of residual vector:     0.00004121      Convergence:   0.00020836
 CPU time [min]:     4.674                   Wall time [min]:     0.164
 
 Iteration 20  CI energy:  -288.47218766  Energy decrease:   0.00000031
 ======================================================================
 Norm of residual vector:     0.00001258      Convergence:   0.00007245
 CPU time [min]:     4.723                   Wall time [min]:     0.165
 
 Iteration 21  CI energy:  -288.47218759  Energy decrease:   0.00000007
 ======================================================================
 Norm of residual vector:     0.0000E+00      Convergence:   2.5537E-05
 CPU time [min]:     4.772                   Wall time [min]:     0.167
 
[...]
    0.038701  6a 7a 8a -> 9a 10a 13a                                    
   -0.036459  6a 7a 8a -> 9a 13a 18a                                    
   -0.038078  6a 7a 8a -> 9a 13a 22a                                    
    0.028802  6a 7a 8a -> 9a 13a 27a                                    
 
 Starting right-hand LR-CC iteration for root                      4 ...
 ======================================================================
 Norm of residual vector:     0.05730989      Convergence:   1.00000000
 CPU time [min]:    17.797                   Wall time [min]:     0.634
 
 Iteration  1  CI energy:  -288.48893999  Energy decrease:   0.43137056
 ======================================================================
 Norm of residual vector:     0.01685196      Convergence:   0.04886047
 CPU time [min]:    18.226                   Wall time [min]:     0.648
 
 Iteration  2  CI energy:  -288.48982739  Energy decrease:   0.00088740
 ======================================================================
 Norm of residual vector:     0.00812048      Convergence:   0.02639722
 CPU time [min]:    18.755                   Wall time [min]:     0.664
 
 Iteration  3  CI energy:  -288.49002517  Energy decrease:   0.00019779
 ======================================================================
 Norm of residual vector:     0.00418537      Convergence:   0.01291259
 CPU time [min]:    19.248                   Wall time [min]:     0.680
 
 Iteration  4  CI energy:  -288.49011073  Energy decrease:   0.00008556
 ======================================================================
 Norm of residual vector:     0.00237999      Convergence:   0.00674431
 CPU time [min]:    19.681                   Wall time [min]:     0.693
 
 Iteration  5  CI energy:  -288.49014098  Energy decrease:   0.00003025
 ======================================================================
 Norm of residual vector:     0.00157379      Convergence:   0.00430761
 CPU time [min]:    20.128                   Wall time [min]:     0.707
 
 Iteration  6  CI energy:  -288.49014608  Energy decrease:   0.00000511
 ======================================================================
 Norm of residual vector:     0.00107768      Convergence:   0.00342344
 CPU time [min]:    20.973                   Wall time [min]:     0.738
 
 Iteration  7  CI energy:  -288.49015154  Energy decrease:   0.00000545
 ======================================================================
 Norm of residual vector:     0.00108229      Convergence:   0.00322463
 CPU time [min]:    21.843                   Wall time [min]:     0.766
 
 Iteration  8  CI energy:  -288.49014830  Energy decrease:   0.00000324
 ======================================================================
 Norm of residual vector:     0.00121614      Convergence:   0.00330505
 CPU time [min]:    23.229                   Wall time [min]:     0.831
 
 Iteration  9  CI energy:  -288.49015728  Energy decrease:   0.00000898
 ======================================================================
 Norm of residual vector:     0.00085309      Convergence:   0.00258963
 CPU time [min]:    24.242                   Wall time [min]:     0.864
 
 Iteration 10  CI energy:  -288.49015682  Energy decrease:   0.00000046
 ======================================================================
 Norm of residual vector:     0.00044025      Convergence:   0.00143640
 CPU time [min]:    24.733                   Wall time [min]:     0.879
 
 Iteration 11  CI energy:  -288.49016054  Energy decrease:   0.00000372
 ======================================================================
 Norm of residual vector:     0.00025207      Convergence:   0.00068221
 CPU time [min]:    25.184                   Wall time [min]:     0.893
 
 Iteration 12  CI energy:  -288.49016131  Energy decrease:   0.00000077
 ======================================================================
 Norm of residual vector:     0.00015189      Convergence:   0.00053433
 CPU time [min]:    25.636                   Wall time [min]:     0.907
 
 Iteration 13  CI energy:  -288.49016292  Energy decrease:   0.00000161
 ======================================================================
 Norm of residual vector:     0.00021429      Convergence:   0.00055008
 CPU time [min]:    26.115                   Wall time [min]:     0.922
 
 Iteration 14  CI energy:  -288.49016389  Energy decrease:   0.00000097
 ======================================================================
 Norm of residual vector:     0.00016047      Convergence:   0.00031834
 CPU time [min]:    26.573                   Wall time [min]:     0.937
 
 Iteration 15  CI energy:  -288.49016455  Energy decrease:   0.00000067
 ======================================================================
 Norm of residual vector:     0.00032761      Convergence:   0.00024938
 CPU time [min]:    27.041                   Wall time [min]:     0.951
 
 Iteration 16  CI energy:  -288.49016522  Energy decrease:   0.00000066
 ======================================================================
 Norm of residual vector:     0.00042313      Convergence:   0.00016871
 CPU time [min]:    27.490                   Wall time [min]:     0.965
 
 Iteration 17  CI energy:  -288.49016551  Energy decrease:   0.00000029
 ======================================================================
 Norm of residual vector:     0.00006745      Convergence:   0.00019683
 CPU time [min]:    27.950                   Wall time [min]:     0.980
 
 Iteration 18  CI energy:  -288.49016369  Energy decrease:   0.00000182
 ======================================================================
 Norm of residual vector:     0.00008487      Convergence:   0.00018122
 CPU time [min]:    28.721                   Wall time [min]:     1.016
 
 Iteration 19  CI energy:  -288.49016335  Energy decrease:   0.00000034
 ======================================================================
 Norm of residual vector:     0.00008642      Convergence:   0.00025087
 CPU time [min]:    29.177                   Wall time [min]:     1.030
 
 Iteration 20  CI energy:  -288.49016408  Energy decrease:   0.00000073
 ======================================================================
 Norm of residual vector:     0.00014525      Convergence:   0.00038022
 CPU time [min]:    29.646                   Wall time [min]:     1.044
 
 Iteration 21  CI energy:  -288.49016443  Energy decrease:   0.00000036
 ======================================================================
 Norm of residual vector:     0.00020003      Convergence:   0.00056295
 CPU time [min]:    30.118                   Wall time [min]:     1.059
 
 Iteration 22  CI energy:  -288.49016452  Energy decrease:   0.00000008
 ======================================================================
 Norm of residual vector:     0.00017579      Convergence:   0.00047590
 CPU time [min]:    30.579                   Wall time [min]:     1.074
 
 Iteration 23  CI energy:  -288.49016505  Energy decrease:   0.00000053
 ======================================================================
 Norm of residual vector:     0.00009428      Convergence:   0.00026559
 CPU time [min]:    31.114                   Wall time [min]:     1.090
 
 Iteration 24  CI energy:  -288.49016353  Energy decrease:   0.00000152
 ======================================================================
 Norm of residual vector:     0.00004107      Convergence:   0.00011455
 CPU time [min]:    31.582                   Wall time [min]:     1.105
 
 Iteration 25  CI energy:  -288.49016377  Energy decrease:   0.00000023
 ======================================================================
 Norm of residual vector:     0.00001670      Convergence:   0.00004348
 CPU time [min]:    32.071                   Wall time [min]:     1.120
 
 Iteration 26  CI energy:  -288.49016391  Energy decrease:   0.00000014
 ======================================================================
 Norm of residual vector:     0.0000E+00      Convergence:   1.9500E-05
 CPU time [min]:    32.582                   Wall time [min]:     1.136
 
 Iteration 27  CI energy:  -288.49016391  Energy decrease:   2.4704E-09
 ======================================================================
 
 Iteration has converged in 27 steps.
 
 Final results:
 Total LR-CCSDTQ energy [au]:       -288.490163912369
 Excitation energy [eV]:          11.7049
 Excitation energy [cm^-1]:    94406.28
 Absorption wavelength [nm]:     105.93
 Spin multiplicity:                     2
 
 Dominant CI coefficients
 Printing threshold:  1.00E-02
 
   -0.273126  6b -> 15b                                                 
    0.080380  6b -> 24b                                                 
    0.280100  6a -> 15a                                                 
   -0.051331  6a -> 24a                                                 
    0.011768  6a 6b -> 10a 15b                                          
    0.012831  6a 6b -> 22a 15b                                          
   -0.014470  6a 6b -> 15a 10b                                          
   -0.021046  6a 6b -> 15a 14b                                          
    0.011269  6a 6b -> 15a 22b                                          
   -0.020340  6a 6b -> 15a 23b                                          
   -0.202577  7a 6b -> 15a 7b                                           
    0.040482  7a 6b -> 24a 7b                                           
    0.186018  7a 6b -> 15a 12b                                          
   -0.031697  7a 6b -> 24a 12b                                          
   -0.061710  7a 6b -> 15a 20b                                          
    0.228877  7a 6b -> 16a 9b                                           
   -0.051824  7a 6b -> 26a 9b                                           
   -0.145199  7a 6b -> 16a 13b                                          
    0.028012  7a 6b -> 26a 13b                                          
   -0.056310  7a 6b -> 16a 21b                                          
   -0.247639  7a 6b -> 9a 16b                                           
    0.102533  7a 6b -> 13a 16b                                          
    0.050998  7a 6b -> 21a 16b                                          
    0.070935  7a 6b -> 9a 26b                                           
   -0.024767  7a 6b -> 13a 26b                                          
    0.020201  7a 6b -> 12a 15b                                          
    0.022876  7a 6b -> 20a 15b                                          
   -0.202577  8a 6b -> 15a 8b                                           
    0.040482  8a 6b -> 24a 8b                                           
    0.186018  8a 6b -> 15a 11b                                          
   -0.031697  8a 6b -> 24a 11b                                          
   -0.061710  8a 6b -> 15a 19b                                          
    0.228877  8a 6b -> 17a 9b                                           
   -0.051824  8a 6b -> 25a 9b                                           
   -0.145199  8a 6b -> 17a 13b                                          
    0.028012  8a 6b -> 25a 13b                                          
   -0.056310  8a 6b -> 17a 21b                                          
   -0.247639  8a 6b -> 9a 17b                                           
    0.102533  8a 6b -> 13a 17b                                          
    0.050998  8a 6b -> 21a 17b                                          
    0.070935  8a 6b -> 9a 25b                                           
   -0.024767  8a 6b -> 13a 25b                                          
    0.020201  8a 6b -> 11a 15b                                          
    0.022876  8a 6b -> 19a 15b                                          
    0.020243  6a 7a -> 12a 15a                                          
   -0.251496  6a 7a -> 9a 16a                                           
    0.103857  6a 7a -> 13a 16a                                          
   -0.022564  6a 7a -> 15a 20a                                          
   -0.051262  6a 7a -> 16a 21a                                          
    0.055972  6a 7a -> 9a 26a                                           
   -0.018580  6a 7a -> 13a 26a                                          
    0.020243  6a 8a -> 11a 15a                                          
   -0.251496  6a 8a -> 9a 17a                                           
    0.103857  6a 8a -> 13a 17a                                          
   -0.022564  6a 8a -> 15a 19a                                          
   -0.051262  6a 8a -> 17a 21a                                          
    0.055972  6a 8a -> 9a 25a                                           
   -0.018580  6a 8a -> 13a 25a                                          
   -0.011135  7a 8a 6b -> 14a 15a 15b                                   
   -0.011775  7a 8a 6b -> 16a 17a 15b                                   
    0.010477  7a 8a 6b -> 14a 15a 24b                                   
    0.011273  7a 8a 6b -> 16a 17a 24b                                   
    0.010338  7a 8a 6b -> 15a 23a 24b                                   
   -0.019081  7a 8a 6b -> 9a 12a 17b                                    
   -0.018041  7a 8a 6b -> 15a 16a 17b                                   
   -0.022236  7a 8a 6b -> 9a 20a 17b                                    
   -0.010634  7a 8a 6b -> 16a 24a 17b                                   
    0.011408  7a 8a 6b -> 15a 26a 17b                                   
    0.012967  7a 8a 6b -> 15a 16a 25b                                   
    0.019081  7a 8a 6b -> 9a 11a 16b                                    
    0.018041  7a 8a 6b -> 15a 17a 16b                                   
    0.022236  7a 8a 6b -> 9a 19a 16b                                    
    0.010634  7a 8a 6b -> 17a 24a 16b                                   
   -0.011408  7a 8a 6b -> 15a 25a 16b                                   
   -0.012967  7a 8a 6b -> 15a 17a 26b                                   
    0.017774  7a 8a 6b -> 11a 16a 9b                                    
   -0.017774  7a 8a 6b -> 12a 17a 9b                                    
   -0.020798  7a 8a 6b -> 16a 19a 9b                                    
    0.020798  7a 8a 6b -> 17a 20a 9b                                    
    0.016011  7a 8a 6b -> 12a 15a 8b                                    
   -0.181157  7a 8a 6b -> 9a 16a 8b                                     
    0.076196  7a 8a 6b -> 13a 16a 8b                                    
   -0.018920  7a 8a 6b -> 15a 20a 8b                                    
   -0.039634  7a 8a 6b -> 16a 21a 8b                                    
    0.043325  7a 8a 6b -> 9a 26a 8b                                     
   -0.015045  7a 8a 6b -> 13a 26a 8b                                    
   -0.012442  7a 8a 6b -> 12a 15a 11b                                   
    0.167540  7a 8a 6b -> 9a 16a 11b                                    
   -0.068171  7a 8a 6b -> 13a 16a 11b                                   
    0.013297  7a 8a 6b -> 15a 20a 11b                                   
    0.032384  7a 8a 6b -> 16a 21a 11b                                   
   -0.035162  7a 8a 6b -> 9a 26a 11b                                    
    0.011150  7a 8a 6b -> 13a 26a 11b                                   
   -0.057307  7a 8a 6b -> 9a 16a 19b                                    
    0.020241  7a 8a 6b -> 13a 16a 19b                                   
   -0.016011  7a 8a 6b -> 11a 15a 7b                                    
    0.181157  7a 8a 6b -> 9a 17a 7b                                     
   -0.076196  7a 8a 6b -> 13a 17a 7b                                    
    0.018920  7a 8a 6b -> 15a 19a 7b                                    
    0.039634  7a 8a 6b -> 17a 21a 7b                                    
   -0.043325  7a 8a 6b -> 9a 25a 7b                                     
    0.015045  7a 8a 6b -> 13a 25a 7b                                    
    0.012442  7a 8a 6b -> 11a 15a 12b                                   
   -0.167540  7a 8a 6b -> 9a 17a 12b                                    
    0.068171  7a 8a 6b -> 13a 17a 12b                                   
   -0.013297  7a 8a 6b -> 15a 19a 12b                                   
   -0.032384  7a 8a 6b -> 17a 21a 12b                                   
    0.035162  7a 8a 6b -> 9a 25a 12b                                    
   -0.011150  7a 8a 6b -> 13a 25a 12b                                   
    0.057307  7a 8a 6b -> 9a 17a 20b                                    
   -0.020241  7a 8a 6b -> 13a 17a 20b                                   
   -0.011349  6a 7a 6b -> 14a 15a 7b                                    
   -0.011277  6a 7a 6b -> 15a 22a 7b                                    
    0.010406  6a 7a 6b -> 14a 15a 12b                                   
   -0.010314  6a 7a 6b -> 10a 16a 9b                                    
    0.013427  6a 7a 6b -> 15a 17a 9b                                    
    0.011762  6a 7a 6b -> 16a 22a 9b                                    
    0.014062  6a 7a 6b -> 9a 15a 25b                                    
   -0.011131  6a 7a 6b -> 9a 10a 16b                                    
   -0.010834  6a 7a 6b -> 9a 18a 16b                                    
   -0.012653  6a 7a 6b -> 9a 22a 16b                                    
    0.013244  6a 7a 6b -> 9a 16a 10b                                    
   -0.012020  6a 7a 6b -> 9a 16a 22b                                    
    0.011349  6a 8a 6b -> 14a 15a 8b                                    
   -0.011277  6a 8a 6b -> 15a 22a 8b                                    
   -0.010406  6a 8a 6b -> 14a 15a 11b                                   
    0.013427  6a 8a 6b -> 15a 16a 9b                                    
   -0.010314  6a 8a 6b -> 10a 17a 9b                                    
    0.011762  6a 8a 6b -> 17a 22a 9b                                    
    0.014062  6a 8a 6b -> 9a 15a 26b                                    
   -0.011131  6a 8a 6b -> 9a 10a 17b                                    
   -0.010834  6a 8a 6b -> 9a 18a 17b                                    
   -0.012653  6a 8a 6b -> 9a 22a 17b                                    
    0.013244  6a 8a 6b -> 9a 17a 10b                                    
   -0.012020  6a 8a 6b -> 9a 17a 22b                                    
   -0.019138  6a 7a 8a -> 9a 11a 16a                                    
    0.019138  6a 7a 8a -> 9a 12a 17a                                    
    0.012890  6a 7a 8a -> 15a 16a 17a                                   
    0.022126  6a 7a 8a -> 9a 16a 19a                                    
   -0.022126  6a 7a 8a -> 9a 17a 20a                                    
    0.014227  6a 7a 8a 6b -> 9a 16a 18a 8b                              
    0.010987  6a 7a 8a 6b -> 9a 16a 22a 8b                              
   -0.010249  6a 7a 8a 6b -> 9a 16a 27a 8b                              
   -0.013172  6a 7a 8a 6b -> 9a 16a 18a 11b                             
   -0.014227  6a 7a 8a 6b -> 9a 17a 18a 7b                              
   -0.010987  6a 7a 8a 6b -> 9a 17a 22a 7b                              
    0.010249  6a 7a 8a 6b -> 9a 17a 27a 7b                              
    0.013172  6a 7a 8a 6b -> 9a 17a 18a 12b                             
 
 ************************ 2018-04-04 00:19:25 *************************
                      Normal termination of mrcc.
 **********************************************************************
--- SharcNET Job Epilogue ---
Job completed successfully.
               jobid: 1540098
               resid: 3019205
         exit status: 0
      allocated time: 215.921
           user time: 2941.3
         system time: 703.32
peak rss=138248192; peak vsz=138248192 (bytes)
atime=215.921; utime=2941.3; stime=703.32; exit=0
