# LAMMPS data file written by OVITO
28437 atoms
4 atom types
-48.2220001 87.2949982 xlo xhi
-35.4039993 102.0940018 ylo yhi
-143.0220032 216.506012 zlo zhi

Atoms # charge

1 1 0.0 54.368 24.7970009 -91.2519989
2 2 0.0 53.7659989 23.7409992 -90.4580002
3 2 0.0 52.4640007 24.1650009 -89.8000031
4 3 0.0 51.8660012 25.1730003 -90.1760025
5 1 0.0 52.026001 23.3910008 -88.8119965
6 2 0.0 50.7659989 23.6599999 -88.1269989
7 2 0.0 50.8600006 24.8509998 -87.1849976
8 3 0.0 51.9339982 25.1870003 -86.689003
9 2 0.0 50.2999992 22.4279995 -87.3550034
10 3 0.0 49.8520012 21.4209996 -88.2440033
11 1 0.0 49.7190018 25.4820004 -86.9420014
12 2 0.0 49.6409989 26.5919991 -86.0100021
13 2 0.0 48.3839989 26.4780007 -85.1549988
14 3 0.0 47.4599991 25.7390003 -85.4909973
15 2 0.0 49.6720009 27.9190006 -86.7600022
16 2 0.0 50.9350014 28.1329994 -87.5329972
17 1 0.0 52.1119995 28.5170002 -86.9349976
18 2 0.0 51.2039986 27.9939996 -88.8529968
19 2 0.0 53.0579987 28.6130009 -87.8560028
20 1 0.0 52.5340004 28.2999992 -89.0250015
21 1 0.0 48.3610001 27.2089996 -84.0479965
22 2 0.0 47.230999 27.1730003 -83.1340027
23 2 0.0 46.9860002 28.5470009 -82.5449982
24 3 0.0 47.908001 29.3470001 -82.4140015
25 2 0.0 47.4920006 26.1739998 -82.0029984
26 3 0.0 48.619999 26.5580006 -81.2310028
27 1 0.0 45.730999 28.823 -82.2129974
28 2 0.0 45.4049988 29.9529992 -81.3580017
29 2 0.0 44.7109986 29.3859997 -80.1320038
30 3 0.0 43.7960015 28.5709992 -80.2570038
31 2 0.0 44.5029984 30.9780006 -82.0569992
32 2 0.0 44.2140007 32.1940003 -81.1790009
33 4 0.0 43.230999 33.5180016 -81.9039994
34 2 0.0 41.6409989 32.7150002 -82.1039963
35 1 0.0 45.1559982 29.8040009 -78.9509964
36 2 0.0 44.6040001 29.2929993 -77.699997
37 2 0.0 44.3639984 30.4109993 -76.7070008
38 3 0.0 45.1990013 31.3029995 -76.5459976
39 2 0.0 45.5600014 28.2880001 -77.060997
40 2 0.0 45.8339997 27.0569992 -77.8909988
41 2 0.0 44.8230019 25.969 -77.6119995
42 1 0.0 45.3059998 24.6830006 -78.1039963
43 2 0.0 45.1450005 24.2560005 -79.3519974
44 1 0.0 44.5029984 25.0149994 -80.2369995
45 1 0.0 45.6230011 23.0720005 -79.7160034
46 1 0.0 43.2200012 30.3519993 -76.038002
47 2 0.0 42.9379998 31.2490006 -74.9339982
48 2 0.0 42.8400002 30.4370003 -73.6429978
49 3 0.0 42.2190018 29.3799992 -73.6119995
50 2 0.0 41.6360016 32.0139999 -75.1829987
51 2 0.0 41.7649994 33.1650009 -76.1480026
52 2 0.0 42.4220009 34.3320007 -75.7809983
53 2 0.0 41.2210007 33.0909996 -77.4309998
54 2 0.0 42.5390015 35.3959999 -76.6579972
55 2 0.0 41.3370018 34.1539993 -78.3190003
56 2 0.0 41.9939996 35.3050003 -77.9260026
57 3 0.0 42.1170006 36.3699989 -78.802002
58 1 0.0 43.4640007 30.9319992 -72.5830002
59 2 0.0 43.4420014 30.2509995 -71.2969971
60 2 0.0 42.8499986 31.1919994 -70.2529984
61 3 0.0 43.2620011 32.3429985 -70.1500015
62 2 0.0 44.8580018 29.823 -70.8919984
63 2 0.0 45.5519982 28.955 -71.913002
64 2 0.0 45.5340004 27.5750008 -71.7990036
65 2 0.0 46.2260018 29.5230007 -72.9820024
66 2 0.0 46.1720009 26.7709999 -72.7450028
67 2 0.0 46.869999 28.7269993 -73.9250032
68 2 0.0 46.8390008 27.3479996 -73.8010025
69 1 0.0 41.875 30.7049999 -69.4929962
70 2 0.0 41.2089996 31.5209999 -68.4820023
71 2 0.0 41.2879982 30.8640004 -67.1080017
72 3 0.0 41.0200005 29.6679993 -66.9609986
73 2 0.0 39.7410012 31.7539997 -68.8560028
74 2 0.0 39.5390015 32.2369995 -70.2669983
75 2 0.0 39.4140015 33.5900002 -70.5410004
76 2 0.0 39.4710007 31.3360005 -71.3180008
77 2 0.0 39.2260018 34.0349998 -71.8379975
78 2 0.0 39.2849999 31.7719994 -72.6159973
79 2 0.0 39.1609993 33.1199989 -72.8789978
80 1 0.0 41.651001 31.6459999 -66.0979996
81 2 0.0 41.6920014 31.1289997 -64.7369995
82 2 0.0 40.903 32.0180016 -63.7929993
83 3 0.0 41.1399994 33.2249985 -63.7249985
84 2 0.0 43.1300011 31.0200005 -64.2040024
85 3 0.0 43.9059982 30.1749992 -65.0650024
86 2 0.0 43.1199989 30.4370003 -62.7879982
87 1 0.0 39.9659996 31.4200001 -63.0670013
88 2 0.0 39.1839981 32.1529999 -62.0779991
89 2 0.0 39.2999992 31.4759999 -60.7120018
90 3 0.0 39.0579987 30.2709999 -60.5839997
91 2 0.0 37.7210007 32.237999 -62.5149994
92 3 0.0 37.0639992 33.3230019 -61.8790016
93 1 0.0 39.6829987 32.2480011 -59.6990013
94 2 0.0 39.9469986 31.7029991 -58.3699989
95 2 0.0 39.1539993 32.4399987 -57.2999992
96 3 0.0 39.362999 33.6300011 -57.0789986
97 2 0.0 41.4410019 31.8250008 -58.0149994
98 2 0.0 41.730999 31.1800003 -56.6529999
99 2 0.0 42.2970009 31.2070007 -59.105999
100 1 0.0 38.2509995 31.7299996 -56.632
101 2 0.0 37.4770012 32.3190003 -55.5439987
102 2 0.0 38.3810005 32.7109986 -54.3810005
103 3 0.0 39.3839989 32.0460014 -54.1069984
104 2 0.0 36.3919983 31.3530007 -55.0610008
105 3 0.0 36.9620018 30.1739998 -54.5050011
106 1 0.0 38.0180016 33.7949982 -53.7050019
107 2 0.0 38.776001 34.2809982 -52.5589981
108 2 0.0 37.8530006 34.4690018 -51.3540001
109 3 0.0 37.3510018 35.5649987 -51.1110001
110 2 0.0 39.5209999 35.5750008 -52.9210014
111 2 0.0 40.5620003 35.3470001 -54.0229988
112 2 0.0 41.4650002 36.5439987 -54.276001
113 1 0.0 40.8100014 37.5509987 -55.0979996
114 2 0.0 41.4469986 38.5239983 -55.7420006
115 1 0.0 42.7659989 38.6220017 -55.6710015
116 1 0.0 40.7589989 39.3989983 -56.4640007
117 1 0.0 37.6160012 33.3779984 -50.6100006
118 2 0.0 36.7200012 33.3209992 -49.4469986
119 2 0.0 36.9910012 34.4480019 -48.4599991
120 3 0.0 38.118 34.5960007 -47.9920006
121 2 0.0 37.0690002 31.9750004 -48.8030014
122 2 0.0 37.5589981 31.1420002 -49.9300004
123 2 0.0 38.2659989 32.0820007 -50.869999
124 1 0.0 35.9630014 35.2319985 -48.1590004
125 2 0.0 36.0870018 36.3409996 -47.2299996
126 2 0.0 37.0289993 37.4309998 -47.7000008
127 3 0.0 37.4039993 38.3069992 -46.9230004
128 1 0.0 37.4070015 37.3860016 -48.9760018
129 2 0.0 38.3479996 38.3590012 -49.5289994
130 2 0.0 37.8670006 38.9889984 -50.8419992
131 3 0.0 38.6759987 39.4329987 -51.6590004
132 2 0.0 39.7350006 37.7260018 -49.7130013
133 2 0.0 40.4799996 37.4729996 -48.4029999
134 2 0.0 41.7319985 36.6170006 -48.6010018
135 1 0.0 42.5750008 37.098999 -49.6949997
136 2 0.0 42.9179994 36.3769989 -50.7610016
137 1 0.0 42.5029984 35.1209984 -50.887001
138 1 0.0 43.6879998 36.9099998 -51.7019997
139 1 0.0 36.5519982 39.0270004 -51.0390015
140 2 0.0 35.973999 39.7299996 -52.1689987
141 2 0.0 35.8919984 38.9399986 -53.4650002
142 3 0.0 35.7389984 37.7200012 -53.4580002
143 1 0.0 36.0019989 39.6520005 -54.5830002
144 2 0.0 35.7770005 39.0810013 -55.9099998
145 2 0.0 36.8969994 38.1469994 -56.3660011
146 3 0.0 38.0519981 38.3050003 -55.9700012
147 2 0.0 35.5900002 40.2010002 -56.9339982
148 2 0.0 34.4469986 41.1450005 -56.6010018
149 2 0.0 33.098999 40.4889984 -56.7779999
150 3 0.0 32.9189988 39.7919998 -57.7970009
151 3 0.0 32.2200012 40.6710015 -55.9099998
152 1 0.0 36.5550003 37.1730003 -57.2210007
153 2 0.0 37.5460015 36.1990013 -57.6910019
154 2 0.0 38.6749993 36.8639984 -58.4630013
155 3 0.0 38.4700012 37.9099998 -59.0740013
156 2 0.0 36.7389984 35.3019982 -58.639
157 2 0.0 35.3100014 35.533001 -58.2929993
158 2 0.0 35.2260018 36.9449998 -57.8139992
159 1 0.0 39.8600006 36.2659989 -58.4150009
160 2 0.0 40.9459992 36.6570015 -59.3030014
161 2 0.0 40.619999 36.0940018 -60.6780014
162 3 0.0 40.2449989 34.9269982 -60.7989998
163 2 0.0 42.2770004 36.0830002 -58.8050003
164 2 0.0 43.4830017 36.362999 -59.7039986
165 2 0.0 43.9490014 37.7999993 -59.5629998
166 1 0.0 45.2000008 38.0690002 -60.2700005
167 2 0.0 46.4119988 37.8510018 -59.7659989
168 1 0.0 46.5470009 37.3440018 -58.5489998
169 1 0.0 47.4930001 38.1339989 -60.4830017
170 1 0.0 40.7389984 36.9199982 -61.7109986
171 2 0.0 40.5340004 36.4459992 -63.0760002
172 2 0.0 41.7029991 36.8330002 -63.9650002
173 3 0.0 41.994999 38.0139999 -64.1460037
174 2 0.0 39.2299996 36.987999 -63.6669998
175 2 0.0 38.9679986 36.5279999 -65.0780029
176 2 0.0 38.487999 35.2540016 -65.3280029
177 2 0.0 39.2039986 37.368 -66.151001
178 2 0.0 38.2470017 34.8240013 -66.6240006
179 2 0.0 38.9650002 36.9440002 -67.453003
180 2 0.0 38.4850006 35.6710015 -67.6880036
181 1 0.0 42.3689995 35.8230019 -64.5110016
182 2 0.0 43.4749985 36.0349998 -65.4329987
183 2 0.0 43.1870003 35.3339996 -66.7610016
184 3 0.0 42.8230019 34.1539993 -66.7900009
185 2 0.0 44.8059998 35.5320015 -64.8339997
186 2 0.0 45.1290016 36.3160019 -63.5530014
187 2 0.0 45.9329988 35.6829987 -65.842003
188 2 0.0 46.2799988 35.7579994 -62.7360001
189 1 0.0 43.3300018 36.0730019 -67.8570024
190 2 0.0 43.1269989 35.5149994 -69.189003
191 2 0.0 44.3139992 35.8460008 -70.074997
192 3 0.0 44.8069992 36.9729996 -70.0670013
193 2 0.0 41.848999 36.0530014 -69.8069992
194 1 0.0 44.7770005 34.855999 -70.8320008
195 2 0.0 45.8829994 35.0620003 -71.7549973
196 2 0.0 45.5789986 34.4109993 -73.1029968
197 3 0.0 44.903 33.3849983 -73.1689987
198 2 0.0 47.2130013 34.5050011 -71.1989975
199 2 0.0 47.5880013 35.2060013 -69.8919984
200 2 0.0 47.1259995 33.0 -70.9980012
201 1 0.0 46.0730019 35.0209999 -74.1740036
202 2 0.0 45.9389992 34.4529991 -75.5059967
203 2 0.0 47.2849999 34.0999985 -76.1080017
204 3 0.0 48.25 34.8499986 -75.9800034
205 1 0.0 47.3520012 32.9459992 -76.7600022
206 2 0.0 48.5769997 32.5029984 -77.4110031
207 2 0.0 48.3219986 32.2109985 -78.8840028
208 3 0.0 47.2550011 31.7150002 -79.2490006
209 2 0.0 49.1090012 31.2229996 -76.7570038
210 2 0.0 49.862999 31.434 -75.4629975
211 2 0.0 49.2029991 31.4190006 -74.2399979
212 2 0.0 51.2360001 31.6299992 -75.4639969
213 2 0.0 49.8919984 31.5979996 -73.052002
214 2 0.0 51.9339982 31.8169995 -74.2839966
215 2 0.0 51.2579994 31.8010006 -73.0810013
216 3 0.0 51.9490014 31.9869996 -71.9059982
217 1 0.0 49.2999992 32.5439987 -79.7210007
218 2 0.0 49.4059982 31.9650002 -81.052002
219 2 0.0 50.632 31.0699997 -80.9860002
220 3 0.0 51.723999 31.5410004 -80.6750031
221 2 0.0 49.6010018 33.0349998 -82.1409988
222 2 0.0 50.0060005 32.3849983 -83.453003
223 2 0.0 48.3330002 33.8540002 -82.3219986
224 1 0.0 50.4519997 29.783001 -81.2580032
225 2 0.0 51.5099983 28.8099995 -81.0289993
226 2 0.0 52.0169983 28.9850006 -79.5920029
227 3 0.0 51.2260018 28.9419994 -78.6539994
228 2 0.0 52.6360016 28.9640008 -82.0619965
229 2 0.0 52.1450005 28.7759991 -83.4980011
230 3 0.0 51.1279984 28.0750008 -83.7070008
231 3 0.0 52.7789994 29.3250008 -84.427002
232 1 0.0 53.3160019 29.2059994 -79.4150009
233 2 0.0 53.8660012 29.408001 -78.0759964
234 2 0.0 54.2360001 30.8640004 -77.8089981
235 3 0.0 55.1469994 31.1509991 -77.0319977
236 2 0.0 55.0740013 28.5020008 -77.848999
237 2 0.0 54.7140007 27.0330009 -77.9199982
238 3 0.0 53.737999 26.6340008 -77.2549973
239 3 0.0 55.3979988 26.2779999 -78.6419983
240 1 0.0 53.5079994 31.7800007 -78.439003
241 2 0.0 53.7509995 33.2060013 -78.2659989
242 2 0.0 52.4980011 33.889 -77.7220001
243 3 0.0 51.4630013 33.9179994 -78.3840027
244 2 0.0 54.1629982 33.8569984 -79.6090012
245 3 0.0 55.3580017 33.2299996 -80.0979996
246 2 0.0 54.4099999 35.3479996 -79.4459992
247 1 0.0 52.5789986 34.4160004 -76.5029984
248 2 0.0 51.4539986 35.1300011 -75.913002
249 2 0.0 51.2919998 36.4529991 -76.6350022
250 3 0.0 52.2809982 37.0839996 -77.0100021
251 2 0.0 51.6850014 35.3959999 -74.4219971
252 2 0.0 50.5509987 36.1790009 -73.7570038
253 2 0.0 50.8919984 36.6380005 -72.3509979
254 3 0.0 52.0309982 36.5130005 -71.9069978
255 1 0.0 49.9020004 37.1790009 -71.6460037
256 1 0.0 50.0530014 36.883999 -76.8339997
257 2 0.0 49.8370018 38.1559982 -77.5169983
258 2 0.0 48.882 39.0880013 -76.788002
259 3 0.0 48.8610002 40.2840004 -77.0660019
260 2 0.0 49.4109993 37.9469986 -78.9820024
261 2 0.0 48.0460014 37.3359985 -79.151001
262 2 0.0 47.8639984 35.9710008 -79.0220032
263 2 0.0 46.9500008 38.1259995 -79.4649964
264 2 0.0 46.6139984 35.4049988 -79.185997
265 2 0.0 45.6969986 37.5649987 -79.6360016
266 2 0.0 45.5279999 36.2039986 -79.4960022
267 1 0.0 48.0950012 38.5480004 -75.8610002
268 2 0.0 47.2190018 39.382 -75.038002
269 2 0.0 47.1100006 38.8730012 -73.6100006
270 3 0.0 47.401001 37.7120018 -73.3180008
271 2 0.0 45.7869988 39.514 -75.6159973
272 2 0.0 45.7900009 40.3549996 -76.8830032
273 2 0.0 45.1679993 38.1399994 -75.8659974
274 1 0.0 46.6850014 39.7610016 -72.7220001
275 2 0.0 46.4449997 39.4020004 -71.3349991
276 2 0.0 45.3779984 40.2939987 -70.7389984
277 3 0.0 45.2249985 41.4539986 -71.1330032
278 2 0.0 47.7350006 39.4959984 -70.5090027
279 2 0.0 48.4070015 40.8670006 -70.526001
280 2 0.0 48.0110016 41.7350006 -69.3330002
281 1 0.0 48.6660004 41.3040009 -68.098999
282 2 0.0 48.8880006 42.0940018 -67.0500031
283 1 0.0 48.5149994 43.3709984 -67.0780029
284 1 0.0 49.4920006 41.6090012 -65.9720002
285 1 0.0 44.6189995 39.7229996 -69.814003
286 2 0.0 43.7809983 40.4930001 -68.9100038
287 2 0.0 43.9869996 39.9319992 -67.5120011
288 3 0.0 43.875 38.723999 -67.2939987
289 2 0.0 42.3009987 40.3979988 -69.2860031
290 2 0.0 41.389 41.1520004 -68.3460007
291 2 0.0 40.9430008 42.4249993 -68.6640015
292 2 0.0 40.9900018 40.5909996 -67.1409988
293 2 0.0 40.1080017 43.1209984 -67.8099976
294 2 0.0 40.1539993 41.2849999 -66.2720032
295 2 0.0 39.7150002 42.5509987 -66.6060028
296 1 0.0 44.3009987 40.8079987 -66.5690003
297 2 0.0 44.4420014 40.4099999 -65.177002
298 2 0.0 43.5460015 41.3069992 -64.3420029
299 3 0.0 43.6749993 42.5289994 -64.3880005
300 2 0.0 45.896 40.5369988 -64.7300034
301 2 0.0 46.137001 39.9449998 -63.3499985
302 3 0.0 45.158001 39.7439995 -62.5960007
303 3 0.0 47.3100014 39.6780014 -63.0209999
304 1 0.0 42.6300011 40.6959992 -63.5929985
305 2 0.0 41.6640015 41.4500008 -62.7989998
306 2 0.0 42.3380013 42.3419991 -61.7599983
307 3 0.0 41.7659989 43.3409996 -61.3269997
308 2 0.0 40.6720009 40.5120011 -62.1100006
309 3 0.0 41.3289986 39.6409989 -61.2099991
310 1 0.0 43.5530014 41.9860002 -61.3610001
311 2 0.0 44.2459984 42.7589989 -60.3370018
312 2 0.0 45.1699982 43.8310013 -60.9300004
313 3 0.0 45.8120003 44.5870018 -60.1949997
314 2 0.0 44.980999 41.8400002 -59.3569985
315 2 0.0 44.0239983 41.0849991 -58.4379998
316 3 0.0 42.7900009 41.0890007 -58.6889992
317 3 0.0 44.5060005 40.480999 -57.4589997
318 1 0.0 45.2099991 43.9169998 -62.2589989
319 2 0.0 45.9840012 44.9599992 -62.9269982
320 2 0.0 45.2089996 46.2770004 -62.9990006
321 3 0.0 44.0270004 46.3320007 -62.6650009
322 2 0.0 46.4099999 44.5019989 -64.3239975
323 1 0.0 45.876999 47.3289986 -63.4589997
324 2 0.0 45.3170014 48.6809998 -63.4140015
325 2 0.0 44.3549996 49.0279999 -64.5500031
326 3 0.0 43.3279991 49.6720009 -64.3199997
327 2 0.0 46.4329987 49.7099991 -63.3450012
328 1 0.0 44.6819992 48.6150017 -65.7710037
329 2 0.0 43.9199982 49.0559998 -66.941002
330 2 0.0 42.4710007 48.5730019 -66.949997
331 3 0.0 41.5830002 49.2620011 -67.4580002
332 2 0.0 44.605999 48.598999 -68.2320023
333 3 0.0 44.4199982 47.2070007 -68.4319992
334 1 0.0 42.2410011 47.3849983 -66.3980026
335 2 0.0 40.9519998 46.7140007 -66.5350037
336 2 0.0 40.5849991 46.5909996 -68.012001
337 3 0.0 39.4169998 46.6660004 -68.3840027
338 2 0.0 39.8580018 47.4510002 -65.7590027
339 2 0.0 40.0699997 47.4550019 -64.2440033
340 2 0.0 40.1150017 46.0550003 -63.6619988
341 3 0.0 39.1349983 45.3089981 -63.7270012
342 1 0.0 41.2550011 45.6920014 -63.0839996
343 1 0.0 41.5979996 46.4049988 -68.8519974
344 2 0.0 41.3829994 46.2109985 -70.2829971
345 2 0.0 42.2169991 45.0460014 -70.7809983
346 3 0.0 43.1609993 44.6180001 -70.1110001
347 2 0.0 41.7599983 47.4710007 -71.0619965
348 2 0.0 40.8709984 48.6710015 -70.7829972
349 2 0.0 41.3409996 49.8979988 -71.5530014
350 1 0.0 41.3610001 49.6640015 -72.9940034
351 2 0.0 40.2869988 49.723999 -73.7770005
352 1 0.0 39.1020012 50.0060005 -73.2580032
353 1 0.0 40.3959999 49.494999 -75.0770035
354 1 0.0 41.868 44.519001 -71.949997
355 2 0.0 42.737999 43.5470009 -72.5950012
356 2 0.0 43.9620018 44.3030014 -73.0739975
357 3 0.0 43.8460008 45.4129982 -73.5940018
358 2 0.0 42.0470009 42.8460008 -73.7630005
359 2 0.0 42.8759996 41.7089997 -74.3479996
360 4 0.0 42.8370018 40.1959992 -73.3539963
361 2 0.0 41.394001 39.3730011 -74.0169983
362 1 0.0 45.1349983 43.7089997 -72.8830032
363 2 0.0 46.3870011 44.4039993 -73.1409988
364 2 0.0 47.2799988 43.6100006 -74.0729981
365 3 0.0 47.3400002 42.3849983 -73.9800034
366 2 0.0 47.1329994 44.644001 -71.8270035
367 2 0.0 46.3349991 45.3670006 -70.7669983
368 2 0.0 47.1010017 45.4790001 -69.4609986
369 3 0.0 48.3440018 45.3499985 -69.4929962
370 3 0.0 46.4650002 45.6860008 -68.4039993
371 1 0.0 47.9900018 44.3139992 -74.9680024
372 2 0.0 48.887001 43.7130013 -75.9609986
373 2 0.0 50.125 43.105999 -75.3030014
374 3 0.0 50.6170006 43.639 -74.3099976
375 2 0.0 49.2869988 44.9119988 -76.8270035
376 2 0.0 49.1640015 46.0760002 -75.901001
377 2 0.0 47.9160004 45.776001 -75.1240006
378 1 0.0 50.6240006 42.007 -75.8590012
379 2 0.0 51.8129998 41.3510018 -75.324997
380 2 0.0 52.730999 40.862999 -76.4349976
381 3 0.0 53.6819992 40.1199989 -76.1910019
382 2 0.0 51.4249993 40.1879997 -74.4079971
383 2 0.0 51.0279999 40.625 -73.0189972
384 2 0.0 52.1380005 41.4519997 -72.3870011
385 1 0.0 51.8989984 41.7070008 -70.9690018
386 2 0.0 51.3709984 42.8300019 -70.4909973
387 1 0.0 51.0200005 43.8089981 -71.3180008
388 1 0.0 51.1930008 42.9760018 -69.1829987
389 1 0.0 52.4300003 41.276001 -77.6589966
390 2 0.0 53.2919998 41.0050011 -78.7990036
391 2 0.0 53.2820015 42.2270012 -79.7020035
392 3 0.0 52.2599983 42.903 -79.8270035
393 2 0.0 52.8230019 39.7739983 -79.5510025
394 1 0.0 54.4269982 42.5270005 -80.3290024
395 2 0.0 54.5200005 43.7130013 -81.1869965
396 2 0.0 53.4410019 43.7260018 -82.264
397 3 0.0 52.862999 44.7770005 -82.5299988
398 2 0.0 55.9020004 43.5740013 -81.828003
399 2 0.0 56.6829987 42.7389984 -80.8720016
400 2 0.0 55.6959992 41.783001 -80.2600021
401 1 0.0 53.1599999 42.5699997 -82.8560028
402 2 0.0 52.2620011 42.5019989 -84.0149994
403 2 0.0 50.783001 42.7350006 -83.7040024
404 3 0.0 49.987999 42.9860002 -84.6100006
405 2 0.0 52.4399987 41.1769981 -84.7590027
406 2 0.0 52.5649987 39.9749986 -83.862999
407 2 0.0 53.7179985 39.4469986 -83.3550034
408 2 0.0 51.4980011 39.151001 -83.3759995
409 1 0.0 53.4350014 38.3419991 -82.586998
410 2 0.0 52.0800018 38.1399994 -82.5820008
411 2 0.0 50.1080017 39.1689987 -83.5339966
412 2 0.0 51.3209992 37.158001 -81.9520036
413 2 0.0 49.3590012 38.1920013 -82.9100038
414 2 0.0 49.9659996 37.2010002 -82.1259995
415 1 0.0 50.4049988 42.6559983 -82.4319992
416 2 0.0 49.012001 42.896 -82.0619965
417 2 0.0 48.7620011 44.3689995 -81.7350006
418 3 0.0 47.6230011 44.8260002 -81.7190018
419 2 0.0 48.5649987 42.0089989 -80.8779984
420 2 0.0 47.0439987 41.8250008 -80.8949966
421 2 0.0 49.0550003 42.5919991 -79.5429993
422 2 0.0 46.5340004 41.1040001 -82.1389999
423 1 0.0 49.8310013 45.112999 -81.4860001
424 2 0.0 49.6940003 46.5110016 -81.0899963
425 2 0.0 49.0110016 47.348999 -82.1610031
426 3 0.0 48.3590012 48.3450012 -81.8529968
427 2 0.0 51.0569992 47.1110001 -80.7480011
428 2 0.0 51.5730019 46.7249985 -79.3690033
429 2 0.0 52.994999 47.1969986 -79.1360016
430 3 0.0 53.3979988 48.2130013 -79.7450028
431 3 0.0 53.7109986 46.5489998 -78.3440018
432 1 0.0 49.1559982 46.9319992 -83.4150009
433 2 0.0 48.6310005 47.6819992 -84.5540009
434 2 0.0 47.105999 47.6660004 -84.6500016
435 3 0.0 46.5219994 48.5120011 -85.3219986
436 2 0.0 49.2480011 47.1710014 -85.8639984
437 2 0.0 48.7970009 45.7700005 -86.2659989
438 2 0.0 49.7789994 45.0769997 -87.1989975
439 3 0.0 49.389 44.4889984 -88.2099991
440 1 0.0 51.0629997 45.1450005 -86.862999
441 1 0.0 46.4609986 46.7070008 -83.9889984
442 2 0.0 45.0 46.6619988 -83.9830018
443 2 0.0 44.4469986 47.9710008 -83.4189987
444 3 0.0 44.9830018 48.5169983 -82.4570008
445 2 0.0 44.4830017 45.4669991 -83.1699982
446 2 0.0 44.9550018 44.0970001 -83.6650009
447 2 0.0 44.3510018 43.6969986 -85.0059967
448 3 0.0 43.3120003 44.2659989 -85.4000015
449 3 0.0 44.9129982 42.7980004 -85.663002
450 1 0.0 43.3759995 48.4729996 -84.0220032
451 2 0.0 42.8059998 49.744999 -83.6179962
452 2 0.0 41.941002 49.6349983 -82.3799973
453 3 0.0 41.744999 48.5410004 -81.8499986
454 1 0.0 41.4160004 50.776001 -81.9120026
455 2 0.0 40.5750008 50.8790016 -80.7149964
456 2 0.0 39.3569985 49.9700012 -80.7819977
457 3 0.0 38.9319992 49.4519997 -79.7519989
458 2 0.0 40.1339989 52.3510018 -80.7300034
459 2 0.0 40.4189987 52.8199997 -82.1360016
460 2 0.0 41.6739998 52.1040001 -82.4830017
461 1 0.0 38.8019982 49.7820015 -81.973999
462 2 0.0 37.6479988 48.9090004 -82.1350021
463 2 0.0 37.9970016 47.5060005 -81.663002
464 3 0.0 37.1860008 46.8370018 -81.0199966
465 2 0.0 37.1920013 48.8660012 -83.5930023
466 2 0.0 37.1279984 50.2299996 -84.2750015
467 2 0.0 36.0670013 51.1459999 -83.6819992
468 3 0.0 35.1199989 51.5089989 -84.4179993
469 3 0.0 36.1759987 51.5040016 -82.4850006
470 1 0.0 39.2089996 47.0670013 -81.9840012
471 2 0.0 39.6640015 45.7410012 -81.5899964
472 2 0.0 39.7509995 45.639 -80.0759964
473 3 0.0 39.1240006 44.7719994 -79.4649964
474 2 0.0 41.0270004 45.4160004 -82.2170029
475 2 0.0 41.598999 44.0979996 -81.7460022
476 2 0.0 41.2140007 42.908001 -82.336998
477 2 0.0 42.5130005 44.0439987 -80.6989975
478 2 0.0 41.7229996 41.6990013 -81.9110032
479 2 0.0 43.0309982 42.8390008 -80.2649994
480 2 0.0 42.6290016 41.6660004 -80.876999
481 3 0.0 43.1230011 40.4510002 -80.4629975
482 1 0.0 40.5219994 46.5390015 -79.4759979
483 2 0.0 40.7649994 46.5040016 -78.0350037
484 2 0.0 39.4959984 46.6899987 -77.2190018
485 3 0.0 39.3009987 46.0099983 -76.2149964
486 2 0.0 41.8390008 47.5200005 -77.6460037
487 2 0.0 43.1310005 47.2019997 -78.3059998
488 2 0.0 43.7159996 47.8790016 -79.3320007
489 2 0.0 43.9850006 46.0880013 -78.0189972
490 1 0.0 44.8919984 47.2669983 -79.6920014
491 2 0.0 45.0810013 46.1660004 -78.8990022
492 2 0.0 43.9350014 45.0400009 -77.0940018
493 2 0.0 46.1150017 45.2350006 -78.8860016
494 2 0.0 44.9609986 44.1170006 -77.0820007
495 2 0.0 46.0349998 44.2179985 -77.9729996
496 1 0.0 38.6269989 47.5970001 -77.6589966
497 2 0.0 37.3380013 47.7799988 -77.0059967
498 2 0.0 36.5610008 46.4630013 -76.9919968
499 3 0.0 36.0040016 46.0709991 -75.9609986
500 2 0.0 36.5250016 48.8790016 -77.6959992
501 2 0.0 37.0849991 50.2779999 -77.4339981
502 3 0.0 38.0229988 50.4140015 -76.6149979
503 3 0.0 36.5830002 51.2459984 -78.0510025
504 1 0.0 36.5359993 45.7859993 -78.1380005
505 2 0.0 35.8409996 44.5180016 -78.2770004
506 2 0.0 36.4000015 43.3919983 -77.4189987
507 3 0.0 35.6489983 42.6609993 -76.7730026
508 1 0.0 37.7190018 43.2439995 -77.4150009
509 2 0.0 38.3499985 42.1899986 -76.6370011
510 2 0.0 38.1629982 42.4669991 -75.1539993
511 3 0.0 38.007 41.5449982 -74.348999
512 2 0.0 39.8380013 42.0820007 -76.9729996
513 2 0.0 40.1160011 41.6990013 -78.4179993
514 2 0.0 39.3909989 40.4360008 -78.828003
515 3 0.0 39.5489998 39.4129982 -78.1309967
516 3 0.0 38.6699982 40.4630013 -79.8519974
517 1 0.0 38.1730003 43.75 -74.8059998
518 2 0.0 37.9840012 44.1669998 -73.4300003
519 2 0.0 36.5839997 43.8170014 -72.9509964
520 3 0.0 36.4129982 43.2879982 -71.8610002
521 2 0.0 38.2589989 45.6739998 -73.2509995
522 3 0.0 39.6669998 45.915001 -73.3769989
523 2 0.0 37.7989998 46.1450005 -71.8830032
524 1 0.0 35.5810013 44.0929985 -73.7730026
525 2 0.0 34.2109985 43.7509995 -73.4069977
526 2 0.0 34.019001 42.2400017 -73.3150025
527 3 0.0 33.3959999 41.7400017 -72.3850021
528 2 0.0 33.2260018 44.355999 -74.4000015
529 2 0.0 33.1450005 45.8689996 -74.2979965
530 2 0.0 32.9609986 46.5079994 -75.6600037
531 1 0.0 31.6800003 46.158001 -76.2600021
532 2 0.0 31.3920002 46.3320007 -77.5449982
533 1 0.0 32.3030014 46.8440018 -78.3669968
534 1 0.0 30.1989994 45.9900018 -78.0100021
535 1 0.0 34.5649987 41.5159989 -74.2819977
536 2 0.0 34.4389992 40.0660019 -74.2990036
537 2 0.0 35.1209984 39.4339981 -73.0820007
538 3 0.0 34.5610008 38.5509987 -72.439003
539 2 0.0 34.9910012 39.4980011 -75.612999
540 2 0.0 34.1399994 39.8520012 -76.8359986
541 2 0.0 34.6529999 39.1899986 -78.1179962
542 2 0.0 35.8390008 39.9370004 -78.7099991
543 1 0.0 36.3030014 39.3120003 -79.987999
544 1 0.0 36.3160019 39.9070016 -72.75
545 2 0.0 37.0740013 39.3059998 -71.6589966
546 2 0.0 36.4039993 39.5730019 -70.3079987
547 3 0.0 36.487999 38.7529984 -69.3899994
548 2 0.0 38.5600014 39.75 -71.6679993
549 2 0.0 38.7210007 41.1380005 -71.0770035
550 2 0.0 39.4220009 38.737999 -70.9369966
551 1 0.0 35.7130013 40.7060013 -70.2030029
552 2 0.0 34.9129982 41.007 -69.0189972
553 2 0.0 33.6990013 40.0820007 -68.9079972
554 3 0.0 33.3670006 39.6100006 -67.8239975
555 2 0.0 34.4599991 42.4679985 -69.0279999
556 2 0.0 35.5629998 43.4640007 -68.699997
557 2 0.0 35.0279999 44.894001 -68.7020035
558 2 0.0 36.0839996 45.8880006 -68.2549973
559 1 0.0 35.639 47.2999992 -68.4759979
560 1 0.0 33.0359993 39.8330002 -70.0339966
561 2 0.0 31.8950006 38.9239998 -70.0589981
562 2 0.0 32.3320007 37.5060005 -69.6969986
563 3 0.0 31.5690003 36.7439995 -69.1050034
564 2 0.0 31.2310009 38.9420014 -71.4309998
565 1 0.0 33.5589981 37.1599999 -70.0780029
566 2 0.0 34.1609993 35.8860016 -69.7040024
567 2 0.0 34.3919983 35.8639984 -68.1969986
568 3 0.0 34.0870018 34.882 -67.5210037
569 2 0.0 35.4990006 35.6980019 -70.4169998
570 2 0.0 35.3790016 35.2420006 -71.836998
571 1 0.0 34.7869988 36.007 -72.8219986
572 2 0.0 35.8019982 34.1110001 -72.449997
573 2 0.0 34.8390008 35.3619995 -73.9700012
574 1 0.0 35.4510002 34.2039986 -73.7730026
575 1 0.0 34.9519998 36.9539986 -67.6819992
576 2 0.0 35.1679993 37.1010017 -66.2509995
577 2 0.0 33.8549996 36.9329988 -65.5019989
578 3 0.0 33.7369995 36.1049995 -64.5950012
579 2 0.0 35.7540016 38.4749985 -65.9469986
580 3 0.0 35.8429986 38.6800003 -64.5559998
581 1 0.0 32.8639984 37.7229996 -65.8960038
582 2 0.0 31.5650006 37.6949997 -65.2409973
583 2 0.0 30.9599992 36.2949982 -65.2549973
584 3 0.0 30.3929997 35.8450012 -64.264
585 2 0.0 30.6130009 38.6930008 -65.903
586 2 0.0 29.2350006 38.7350006 -65.2710037
587 2 0.0 29.2900009 38.9799996 -63.7739983
588 3 0.0 30.1739998 39.6839981 -63.2770004
589 1 0.0 28.3409996 38.3979988 -63.0460014
590 1 0.0 31.0790005 35.605999 -66.3820038
591 2 0.0 30.5060005 34.2729988 -66.5029984
592 2 0.0 31.1119995 33.2980003 -65.4929962
593 3 0.0 30.4020004 32.5029984 -64.8799974
594 2 0.0 30.6790009 33.7150002 -67.9250032
595 3 0.0 29.7950001 34.408001 -68.8170014
596 2 0.0 30.3479996 32.2360001 -67.953003
597 1 0.0 32.4249993 33.3569985 -65.3199997
598 2 0.0 33.0919991 32.4239998 -64.4209976
599 2 0.0 32.9210014 32.8199997 -62.9510002
600 3 0.0 32.9790002 31.9729996 -62.0600014
601 2 0.0 34.5579987 32.2400017 -64.8310013
602 2 0.0 34.7169991 31.7740002 -66.2470017
603 1 0.0 35.5460015 32.3989983 -67.1539993
604 2 0.0 34.1049995 30.7730007 -66.927002
605 2 0.0 35.4589997 31.7880001 -68.3229981
606 1 0.0 34.5929985 30.7970009 -68.211998
607 1 0.0 32.6739998 34.1020012 -62.7070008
608 2 0.0 32.3590012 34.5579987 -61.3600006
609 2 0.0 31.0919991 33.8600006 -60.8860016
610 3 0.0 30.9939996 33.4249993 -59.7369995
611 2 0.0 32.1759987 36.0789986 -61.3240013
612 2 0.0 31.8239994 36.6230011 -59.9430008
613 2 0.0 31.9939996 38.1360016 -59.8670006
614 1 0.0 30.844 38.876999 -60.3810005
615 2 0.0 30.7740002 40.2080002 -60.4350014
616 1 0.0 31.7900009 40.9490014 -60.0060005
617 1 0.0 29.6889992 40.8030014 -60.9199982
618 1 0.0 30.1229992 33.7509995 -61.7869988
619 2 0.0 28.8859998 33.0429993 -61.4910012
620 2 0.0 29.1359997 31.5349999 -61.3919983
621 3 0.0 28.6049996 30.8700008 -60.4990006
622 2 0.0 27.8040009 33.3530007 -62.5509987
623 2 0.0 26.658001 32.3499985 -62.4780007
624 2 0.0 27.2950001 34.7849999 -62.3779984
625 1 0.0 29.9640008 31.0100002 -62.2949982
626 2 0.0 30.2779999 29.5779991 -62.3300018
627 2 0.0 30.8379994 29.0470009 -61.0110016
628 3 0.0 30.5039997 27.9419994 -60.5909996
629 2 0.0 31.2810001 29.2670002 -63.4420014
630 2 0.0 30.6749993 29.3810005 -64.8320008
631 3 0.0 29.4349995 29.3999996 -64.9589996
632 3 0.0 31.4519997 29.448 -65.7990036
633 1 0.0 31.7180004 29.8180008 -60.3810005
634 2 0.0 32.2869988 29.4160004 -59.0999985
635 2 0.0 31.184 29.1590004 -58.0750008
636 3 0.0 31.243 28.1900005 -57.3190003
637 2 0.0 33.2599983 30.4759999 -58.5830002
638 2 0.0 34.6069985 30.5580006 -59.3019982
639 2 0.0 35.2960014 31.896 -59.0429993
640 2 0.0 35.4920006 29.3899994 -58.8849984
641 1 0.0 30.1770001 30.0249996 -58.0559998
642 2 0.0 29.059 29.8540002 -57.1479988
643 2 0.0 28.2290001 28.6490002 -57.5359993
644 3 0.0 27.8250008 27.8579998 -56.6870003
645 1 0.0 27.9860002 28.5020008 -58.8339997
646 2 0.0 27.2040005 27.382 -59.3419991
647 2 0.0 27.8530006 26.0470009 -58.993
648 3 0.0 27.1800003 25.1110001 -58.5489998
649 2 0.0 27.0319996 27.4710007 -60.8670006
650 3 0.0 26.4400006 28.7299996 -61.2050018
651 2 0.0 26.1439991 26.3390007 -61.375
652 1 0.0 29.1650009 25.9680004 -59.1959992
653 2 0.0 29.9120008 24.7399998 -58.9440002
654 2 0.0 29.9990006 24.4239998 -57.4500008
655 3 0.0 29.9500008 23.2649994 -57.0509987
656 2 0.0 31.3099995 24.8320008 -59.5660019
657 2 0.0 31.2889996 24.8449994 -61.0950012
658 2 0.0 32.6090012 25.3309994 -61.6699982
659 2 0.0 30.9379998 23.4650002 -61.625
660 1 0.0 30.1289997 25.4570008 -56.6290016
661 2 0.0 30.1270008 25.2590008 -55.1850014
662 2 0.0 28.8029995 24.639 -54.737999
663 3 0.0 28.7700005 23.8120003 -53.8339997
664 2 0.0 30.3719998 26.5750008 -54.4490013
665 2 0.0 30.4680004 26.4090004 -52.9500008
666 2 0.0 30.8479996 27.7010002 -52.2630005
667 1 0.0 29.7280007 28.6310005 -52.1759987
668 2 0.0 28.7840004 28.5799999 -51.2410011
669 1 0.0 28.8150006 27.6329994 -50.3089981
670 1 0.0 27.8050003 29.4750004 -51.2389984
671 1 0.0 27.7129994 25.0380001 -55.3839989
672 2 0.0 26.4120007 24.4680004 -55.0960007
673 2 0.0 26.3010006 23.0480003 -55.6160012
674 3 0.0 25.856001 22.1539993 -54.903
675 1 0.0 26.7010002 22.844 -56.8670006
676 2 0.0 26.7059994 21.5130005 -57.4700012
677 2 0.0 27.3670006 20.4750004 -56.5589981
678 3 0.0 26.8990002 19.3390007 -56.4519997
679 2 0.0 27.4470005 21.5400009 -58.8079987
680 2 0.0 26.6560002 22.0919991 -59.9760018
681 2 0.0 25.4619999 22.7719994 -59.7840004
682 2 0.0 27.1310005 21.9580002 -61.2750015
683 2 0.0 24.7520008 23.283001 -60.8619996
684 2 0.0 26.434 22.4680004 -62.3530007
685 2 0.0 25.2490006 23.1289997 -62.1430016
686 3 0.0 24.5599995 23.632 -63.2190018
687 1 0.0 28.4610005 20.868 -55.9119988
688 2 0.0 29.2070007 19.9489994 -55.0600014
689 2 0.0 28.9529992 20.1889992 -53.5690003