# LAMMPS data file written by OVITO
28437 atoms
4 atom types
-48.2220001 87.2949982 xlo xhi
-35.4039993 102.0940018 ylo yhi
-131.7200012 216.506012 zlo zhi

Atoms # atomic

1 1 54.368 24.7970009 -79.949997
2 2 53.7659989 23.7409992 -79.1559982
3 2 52.4640007 24.1650009 -78.4980011
4 3 51.8660012 25.1730003 -78.8740006
5 1 52.026001 23.3910008 -77.5100022
6 2 50.7659989 23.6599999 -76.824997
7 2 50.8600006 24.8509998 -75.8830032
8 3 51.9339982 25.1870003 -75.3870011
9 2 50.2999992 22.4279995 -76.0530014
10 3 49.8520012 21.4209996 -76.9420014
11 1 49.7190018 25.4820004 -75.6399994
12 2 49.6409989 26.5919991 -74.7080002
13 2 48.3839989 26.4780007 -73.8529968
14 3 47.4599991 25.7390003 -74.189003
15 2 49.6720009 27.9190006 -75.4580002
16 2 50.9350014 28.1329994 -76.2310028
17 1 52.1119995 28.5170002 -75.6330033
18 2 51.2039986 27.9939996 -77.5510025
19 2 53.0579987 28.6130009 -76.5540009
20 1 52.5340004 28.2999992 -77.7229996
21 1 48.3610001 27.2089996 -72.7460022
22 2 47.230999 27.1730003 -71.8320008
23 2 46.9860002 28.5470009 -71.2429962
24 3 47.908001 29.3470001 -71.1119995
25 2 47.4920006 26.1739998 -70.7009964
26 3 48.619999 26.5580006 -69.929001
27 1 45.730999 28.823 -70.9110032
28 2 45.4049988 29.9529992 -70.0559998
29 2 44.7109986 29.3859997 -68.8300019
30 3 43.7960015 28.5709992 -68.9550018
31 2 44.5029984 30.9780006 -70.7549973
32 2 44.2140007 32.1940003 -69.876999
33 4 43.230999 33.5180016 -70.6019974
34 2 41.6409989 32.7150002 -70.802002
35 1 45.1559982 29.8040009 -67.6490021
36 2 44.6040001 29.2929993 -66.3980026
37 2 44.3639984 30.4109993 -65.4049988
38 3 45.1990013 31.3029995 -65.2440033
39 2 45.5600014 28.2880001 -65.7590027
40 2 45.8339997 27.0569992 -66.5889969
41 2 44.8230019 25.969 -66.3099976
42 1 45.3059998 24.6830006 -66.802002
43 2 45.1450005 24.2560005 -68.0500031
44 1 44.5029984 25.0149994 -68.9349976
45 1 45.6230011 23.0720005 -68.4140015
46 1 43.2200012 30.3519993 -64.7360001
47 2 42.9379998 31.2490006 -63.632
48 2 42.8400002 30.4370003 -62.3409996
49 3 42.2190018 29.3799992 -62.3100014
50 2 41.6360016 32.0139999 -63.8810006
51 2 41.7649994 33.1650009 -64.8460008
52 2 42.4220009 34.3320007 -64.4789963
53 2 41.2210007 33.0909996 -66.1289978
54 2 42.5390015 35.3959999 -65.3560028
55 2 41.3370018 34.1539993 -67.0169983
56 2 41.9939996 35.3050003 -66.6240006
57 3 42.1170006 36.3699989 -67.5
58 1 43.4640007 30.9319992 -61.2809982
59 2 43.4420014 30.2509995 -59.994999
60 2 42.8499986 31.1919994 -58.9510002
61 3 43.2620011 32.3429985 -58.8479996
62 2 44.8580018 29.823 -59.5900002
63 2 45.5519982 28.955 -60.6110001
64 2 45.5340004 27.5750008 -60.4970017
65 2 46.2260018 29.5230007 -61.6800003
66 2 46.1720009 26.7709999 -61.4430008
67 2 46.869999 28.7269993 -62.6230011
68 2 46.8390008 27.3479996 -62.4990006
69 1 41.875 30.7049999 -58.1910019
70 2 41.2089996 31.5209999 -57.1800003
71 2 41.2879982 30.8640004 -55.8059998
72 3 41.0200005 29.6679993 -55.6590004
73 2 39.7410012 31.7539997 -57.5540009
74 2 39.5390015 32.2369995 -58.9650002
75 2 39.4140015 33.5900002 -59.2389984
76 2 39.4710007 31.3360005 -60.0159988
77 2 39.2260018 34.0349998 -60.5359993
78 2 39.2849999 31.7719994 -61.3139992
79 2 39.1609993 33.1199989 -61.5769997
80 1 41.651001 31.6459999 -54.7960015
81 2 41.6920014 31.1289997 -53.4350014
82 2 40.903 32.0180016 -52.4910012
83 3 41.1399994 33.2249985 -52.4230004
84 2 43.1300011 31.0200005 -52.9020004
85 3 43.9059982 30.1749992 -53.7630005
86 2 43.1199989 30.4370003 -51.4860001
87 1 39.9659996 31.4200001 -51.7649994
88 2 39.1839981 32.1529999 -50.776001
89 2 39.2999992 31.4759999 -49.4099999
90 3 39.0579987 30.2709999 -49.2820015
91 2 37.7210007 32.237999 -51.2130013
92 3 37.0639992 33.3230019 -50.5769997
93 1 39.6829987 32.2480011 -48.3969994
94 2 39.9469986 31.7029991 -47.0680008
95 2 39.1539993 32.4399987 -45.9980012
96 3 39.362999 33.6300011 -45.7770005
97 2 41.4410019 31.8250008 -46.7130013
98 2 41.730999 31.1800003 -45.3510018
99 2 42.2970009 31.2070007 -47.8040009
100 1 38.2509995 31.7299996 -45.3300018
101 2 37.4770012 32.3190003 -44.2420006
102 2 38.3810005 32.7109986 -43.0789986
103 3 39.3839989 32.0460014 -42.8050003
104 2 36.3919983 31.3530007 -43.7589989
105 3 36.9620018 30.1739998 -43.2029991
106 1 38.0180016 33.7949982 -42.4029999
107 2 38.776001 34.2809982 -41.257
108 2 37.8530006 34.4690018 -40.0519981
109 3 37.3510018 35.5649987 -39.8089981
110 2 39.5209999 35.5750008 -41.6189995
111 2 40.5620003 35.3470001 -42.7210007
112 2 41.4650002 36.5439987 -42.973999
113 1 40.8100014 37.5509987 -43.7960015
114 2 41.4469986 38.5239983 -44.4399987
115 1 42.7659989 38.6220017 -44.3689995
116 1 40.7589989 39.3989983 -45.1619988
117 1 37.6160012 33.3779984 -39.3079987
118 2 36.7200012 33.3209992 -38.1450005
119 2 36.9910012 34.4480019 -37.158001
120 3 38.118 34.5960007 -36.6899987
121 2 37.0690002 31.9750004 -37.5009995
122 2 37.5589981 31.1420002 -38.6279984
123 2 38.2659989 32.0820007 -39.5680008
124 1 35.9630014 35.2319985 -36.8569984
125 2 36.0870018 36.3409996 -35.9280014
126 2 37.0289993 37.4309998 -36.3979988
127 3 37.4039993 38.3069992 -35.6209984
128 1 37.4070015 37.3860016 -37.6739998
129 2 38.3479996 38.3590012 -38.2270012
130 2 37.8670006 38.9889984 -39.5400009
131 3 38.6759987 39.4329987 -40.3569985
132 2 39.7350006 37.7260018 -38.4109993
133 2 40.4799996 37.4729996 -37.1010017
134 2 41.7319985 36.6170006 -37.2989998
135 1 42.5750008 37.098999 -38.3930016
136 2 42.9179994 36.3769989 -39.4589997
137 1 42.5029984 35.1209984 -39.5849991
138 1 43.6879998 36.9099998 -40.4000015
139 1 36.5519982 39.0270004 -39.7369995
140 2 35.973999 39.7299996 -40.8670006
141 2 35.8919984 38.9399986 -42.1629982
142 3 35.7389984 37.7200012 -42.1559982
143 1 36.0019989 39.6520005 -43.2809982
144 2 35.7770005 39.0810013 -44.6080017
145 2 36.8969994 38.1469994 -45.0639992
146 3 38.0519981 38.3050003 -44.6679993
147 2 35.5900002 40.2010002 -45.632
148 2 34.4469986 41.1450005 -45.2989998
149 2 33.098999 40.4889984 -45.4760018
150 3 32.9189988 39.7919998 -46.494999
151 3 32.2200012 40.6710015 -44.6080017
152 1 36.5550003 37.1730003 -45.9189988
153 2 37.5460015 36.1990013 -46.389
154 2 38.6749993 36.8639984 -47.1609993
155 3 38.4700012 37.9099998 -47.7719994
156 2 36.7389984 35.3019982 -47.3370018
157 2 35.3100014 35.533001 -46.9910012
158 2 35.2260018 36.9449998 -46.5120011
159 1 39.8600006 36.2659989 -47.112999
160 2 40.9459992 36.6570015 -48.0009995
161 2 40.619999 36.0940018 -49.3759995
162 3 40.2449989 34.9269982 -49.4970017
163 2 42.2770004 36.0830002 -47.5029984
164 2 43.4830017 36.362999 -48.4020004
165 2 43.9490014 37.7999993 -48.2610016
166 1 45.2000008 38.0690002 -48.9679986
167 2 46.4119988 37.8510018 -48.4640007
168 1 46.5470009 37.3440018 -47.2470017
169 1 47.4930001 38.1339989 -49.1809998
170 1 40.7389984 36.9199982 -50.4090004
171 2 40.5340004 36.4459992 -51.7739983
172 2 41.7029991 36.8330002 -52.6629982
173 3 41.994999 38.0139999 -52.8440018
174 2 39.2299996 36.987999 -52.3650017
175 2 38.9679986 36.5279999 -53.776001
176 2 38.487999 35.2540016 -54.026001
177 2 39.2039986 37.368 -54.848999
178 2 38.2470017 34.8240013 -55.3219986
179 2 38.9650002 36.9440002 -56.151001
180 2 38.4850006 35.6710015 -56.3860016
181 1 42.3689995 35.8230019 -53.2089996
182 2 43.4749985 36.0349998 -54.1310005
183 2 43.1870003 35.3339996 -55.4589997
184 3 42.8230019 34.1539993 -55.487999
185 2 44.8059998 35.5320015 -53.5320015
186 2 45.1290016 36.3160019 -52.2509995
187 2 45.9329988 35.6829987 -54.5400009
188 2 46.2799988 35.7579994 -51.4339981
189 1 43.3300018 36.0730019 -56.5550003
190 2 43.1269989 35.5149994 -57.887001
191 2 44.3139992 35.8460008 -58.7729988
192 3 44.8069992 36.9729996 -58.7649994
193 2 41.848999 36.0530014 -58.5050011
194 1 44.7770005 34.855999 -59.5299988
195 2 45.8829994 35.0620003 -60.4529991
196 2 45.5789986 34.4109993 -61.8009987
197 3 44.903 33.3849983 -61.8670006
198 2 47.2130013 34.5050011 -59.8969994
199 2 47.5880013 35.2060013 -58.5900002
200 2 47.1259995 33.0 -59.6959992
201 1 46.0730019 35.0209999 -62.8720016
202 2 45.9389992 34.4529991 -64.2040024
203 2 47.2849999 34.0999985 -64.8059998
204 3 48.25 34.8499986 -64.6780014
205 1 47.3520012 32.9459992 -65.4580002
206 2 48.5769997 32.5029984 -66.1090012
207 2 48.3219986 32.2109985 -67.5820008
208 3 47.2550011 31.7150002 -67.9469986
209 2 49.1090012 31.2229996 -65.4550019
210 2 49.862999 31.434 -64.1610031
211 2 49.2029991 31.4190006 -62.9379998
212 2 51.2360001 31.6299992 -64.1620026
213 2 49.8919984 31.5979996 -61.75
214 2 51.9339982 31.8169995 -62.9819984
215 2 51.2579994 31.8010006 -61.7789994
216 3 51.9490014 31.9869996 -60.6040001
217 1 49.2999992 32.5439987 -68.4189987
218 2 49.4059982 31.9650002 -69.75
219 2 50.632 31.0699997 -69.6839981
220 3 51.723999 31.5410004 -69.3730011
221 2 49.6010018 33.0349998 -70.838997
222 2 50.0060005 32.3849983 -72.151001
223 2 48.3330002 33.8540002 -71.0199966
224 1 50.4519997 29.783001 -69.9560014
225 2 51.5099983 28.8099995 -69.7269974
226 2 52.0169983 28.9850006 -68.2900009
227 3 51.2260018 28.9419994 -67.3519974
228 2 52.6360016 28.9640008 -70.7600022
229 2 52.1450005 28.7759991 -72.1959992
230 3 51.1279984 28.0750008 -72.4049988
231 3 52.7789994 29.3250008 -73.125
232 1 53.3160019 29.2059994 -68.112999
233 2 53.8660012 29.408001 -66.7740021
234 2 54.2360001 30.8640004 -66.5070038
235 3 55.1469994 31.1509991 -65.7300034
236 2 55.0740013 28.5020008 -66.5469971
237 2 54.7140007 27.0330009 -66.6179962
238 3 53.737999 26.6340008 -65.953003
239 3 55.3979988 26.2779999 -67.3399964
240 1 53.5079994 31.7800007 -67.137001
241 2 53.7509995 33.2060013 -66.963997
242 2 52.4980011 33.889 -66.4199982
243 3 51.4630013 33.9179994 -67.0820007
244 2 54.1629982 33.8569984 -68.3069992
245 3 55.3580017 33.2299996 -68.7959976
246 2 54.4099999 35.3479996 -68.1439972
247 1 52.5789986 34.4160004 -65.2009964
248 2 51.4539986 35.1300011 -64.6110001
249 2 51.2919998 36.4529991 -65.3330002
250 3 52.2809982 37.0839996 -65.7080002
251 2 51.6850014 35.3959999 -63.1199989
252 2 50.5509987 36.1790009 -62.4550019
253 2 50.8919984 36.6380005 -61.0489998
254 3 52.0309982 36.5130005 -60.6049996
255 1 49.9020004 37.1790009 -60.3440018
256 1 50.0530014 36.883999 -65.5319977
257 2 49.8370018 38.1559982 -66.2149964
258 2 48.882 39.0880013 -65.4860001
259 3 48.8610002 40.2840004 -65.764
260 2 49.4109993 37.9469986 -67.6800003
261 2 48.0460014 37.3359985 -67.848999
262 2 47.8639984 35.9710008 -67.7200012
263 2 46.9500008 38.1259995 -68.163002
264 2 46.6139984 35.4049988 -67.8840028
265 2 45.6969986 37.5649987 -68.3339996
266 2 45.5279999 36.2039986 -68.1940003
267 1 48.0950012 38.5480004 -64.5589981
268 2 47.2190018 39.382 -63.7360001
269 2 47.1100006 38.8730012 -62.3079987
270 3 47.401001 37.7120018 -62.0159988
271 2 45.7869988 39.514 -64.314003
272 2 45.7900009 40.3549996 -65.5810013
273 2 45.1679993 38.1399994 -64.564003
274 1 46.6850014 39.7610016 -61.4199982
275 2 46.4449997 39.4020004 -60.0330009
276 2 45.3779984 40.2939987 -59.4370003
277 3 45.2249985 41.4539986 -59.8310013
278 2 47.7350006 39.4959984 -59.2070007
279 2 48.4070015 40.8670006 -59.223999
280 2 48.0110016 41.7350006 -58.0309982
281 1 48.6660004 41.3040009 -56.7970009
282 2 48.8880006 42.0940018 -55.7480011
283 1 48.5149994 43.3709984 -55.776001
284 1 49.4920006 41.6090012 -54.6699982
285 1 44.6189995 39.7229996 -58.5120011
286 2 43.7809983 40.4930001 -57.6080017
287 2 43.9869996 39.9319992 -56.2099991
288 3 43.875 38.723999 -55.9920006
289 2 42.3009987 40.3979988 -57.9840012
290 2 41.389 41.1520004 -57.0439987
291 2 40.9430008 42.4249993 -57.3619995
292 2 40.9900018 40.5909996 -55.8390008
293 2 40.1080017 43.1209984 -56.5079994
294 2 40.1539993 41.2849999 -54.9700012
295 2 39.7150002 42.5509987 -55.3040009
296 1 44.3009987 40.8079987 -55.2669983
297 2 44.4420014 40.4099999 -53.875
298 2 43.5460015 41.3069992 -53.0400009
299 3 43.6749993 42.5289994 -53.0859985
300 2 45.896 40.5369988 -53.4280014
301 2 46.137001 39.9449998 -52.0480003
302 3 45.158001 39.7439995 -51.2939987
303 3 47.3100014 39.6780014 -51.7190018
304 1 42.6300011 40.6959992 -52.2910004
305 2 41.6640015 41.4500008 -51.4970017
306 2 42.3380013 42.3419991 -50.4580002
307 3 41.7659989 43.3409996 -50.0250015
308 2 40.6720009 40.5120011 -50.8079987
309 3 41.3289986 39.6409989 -49.908001
310 1 43.5530014 41.9860002 -50.0589981
311 2 44.2459984 42.7589989 -49.0349998
312 2 45.1699982 43.8310013 -49.6279984
313 3 45.8120003 44.5870018 -48.8930016
314 2 44.980999 41.8400002 -48.0550003
315 2 44.0239983 41.0849991 -47.1360016
316 3 42.7900009 41.0890007 -47.3870011
317 3 44.5060005 40.480999 -46.1570015
318 1 45.2099991 43.9169998 -50.9570008
319 2 45.9840012 44.9599992 -51.625
320 2 45.2089996 46.2770004 -51.6969986
321 3 44.0270004 46.3320007 -51.362999
322 2 46.4099999 44.5019989 -53.0219994
323 1 45.876999 47.3289986 -52.1570015
324 2 45.3170014 48.6809998 -52.1119995
325 2 44.3549996 49.0279999 -53.2480011
326 3 43.3279991 49.6720009 -53.0180016
327 2 46.4329987 49.7099991 -52.0429993
328 1 44.6819992 48.6150017 -54.4690018
329 2 43.9199982 49.0559998 -55.639
330 2 42.4710007 48.5730019 -55.6479988
331 3 41.5830002 49.2620011 -56.1559982
332 2 44.605999 48.598999 -56.9300004
333 3 44.4199982 47.2070007 -57.1300011
334 1 42.2410011 47.3849983 -55.0960007
335 2 40.9519998 46.7140007 -55.2330017
336 2 40.5849991 46.5909996 -56.7099991
337 3 39.4169998 46.6660004 -57.0820007
338 2 39.8580018 47.4510002 -54.4570008
339 2 40.0699997 47.4550019 -52.9420014
340 2 40.1150017 46.0550003 -52.3600006
341 3 39.1349983 45.3089981 -52.4249993
342 1 41.2550011 45.6920014 -51.7820015
343 1 41.5979996 46.4049988 -57.5499993
344 2 41.3829994 46.2109985 -58.980999
345 2 42.2169991 45.0460014 -59.4790001
346 3 43.1609993 44.6180001 -58.8089981
347 2 41.7599983 47.4710007 -59.7599983
348 2 40.8709984 48.6710015 -59.480999
349 2 41.3409996 49.8979988 -60.2509995
350 1 41.3610001 49.6640015 -61.6920014
351 2 40.2869988 49.723999 -62.4749985
352 1 39.1020012 50.0060005 -61.9560014
353 1 40.3959999 49.494999 -63.7750016
354 1 41.868 44.519001 -60.6479988
355 2 42.737999 43.5470009 -61.2929993
356 2 43.9620018 44.3030014 -61.7719994
357 3 43.8460008 45.4129982 -62.2919998
358 2 42.0470009 42.8460008 -62.4609986
359 2 42.8759996 41.7089997 -63.0460014
360 4 42.8370018 40.1959992 -62.0519981
361 2 41.394001 39.3730011 -62.7150002
362 1 45.1349983 43.7089997 -61.5810013
363 2 46.3870011 44.4039993 -61.8390008
364 2 47.2799988 43.6100006 -62.7709999
365 3 47.3400002 42.3849983 -62.6780014
366 2 47.1329994 44.644001 -60.5250016
367 2 46.3349991 45.3670006 -59.4650002
368 2 47.1010017 45.4790001 -58.1590004
369 3 48.3440018 45.3499985 -58.1910019
370 3 46.4650002 45.6860008 -57.1020012
371 1 47.9900018 44.3139992 -63.6660004
372 2 48.887001 43.7130013 -64.6589966
373 2 50.125 43.105999 -64.0009995
374 3 50.6170006 43.639 -63.0079994
375 2 49.2869988 44.9119988 -65.5250016
376 2 49.1640015 46.0760002 -64.598999
377 2 47.9160004 45.776001 -63.8219986
378 1 50.6240006 42.007 -64.5569992
379 2 51.8129998 41.3510018 -64.0230026
380 2 52.730999 40.862999 -65.1330032
381 3 53.6819992 40.1199989 -64.889
382 2 51.4249993 40.1879997 -63.105999
383 2 51.0279999 40.625 -61.7169991
384 2 52.1380005 41.4519997 -61.0849991
385 1 51.8989984 41.7070008 -59.6669998
386 2 51.3709984 42.8300019 -59.1889992
387 1 51.0200005 43.8089981 -60.0159988
388 1 51.1930008 42.9760018 -57.8810006
389 1 52.4300003 41.276001 -66.3570023
390 2 53.2919998 41.0050011 -67.4970017
391 2 53.2820015 42.2270012 -68.4000015
392 3 52.2599983 42.903 -68.5250016
393 2 52.8230019 39.7739983 -68.2490006
394 1 54.4269982 42.5270005 -69.0270004
395 2 54.5200005 43.7130013 -69.8850022
396 2 53.4410019 43.7260018 -70.961998
397 3 52.862999 44.7770005 -71.2279968
398 2 55.9020004 43.5740013 -70.526001
399 2 56.6829987 42.7389984 -69.5699997
400 2 55.6959992 41.783001 -68.9580002
401 1 53.1599999 42.5699997 -71.5540009
402 2 52.2620011 42.5019989 -72.7129975
403 2 50.783001 42.7350006 -72.4020004
404 3 49.987999 42.9860002 -73.3079987
405 2 52.4399987 41.1769981 -73.4570008
406 2 52.5649987 39.9749986 -72.560997
407 2 53.7179985 39.4469986 -72.0530014
408 2 51.4980011 39.151001 -72.0739975
409 1 53.4350014 38.3419991 -71.2850037
410 2 52.0800018 38.1399994 -71.2799988
411 2 50.1080017 39.1689987 -72.2320023
412 2 51.3209992 37.158001 -70.6500016
413 2 49.3590012 38.1920013 -71.6080017
414 2 49.9659996 37.2010002 -70.8239975
415 1 50.4049988 42.6559983 -71.1299973
416 2 49.012001 42.896 -70.7600022
417 2 48.7620011 44.3689995 -70.4329987
418 3 47.6230011 44.8260002 -70.4169998
419 2 48.5649987 42.0089989 -69.5759964
420 2 47.0439987 41.8250008 -69.5930023
421 2 49.0550003 42.5919991 -68.2409973
422 2 46.5340004 41.1040001 -70.836998
423 1 49.8310013 45.112999 -70.1839981
424 2 49.6940003 46.5110016 -69.788002
425 2 49.0110016 47.348999 -70.8590012
426 3 48.3590012 48.3450012 -70.5510025
427 2 51.0569992 47.1110001 -69.4459992
428 2 51.5730019 46.7249985 -68.0670013
429 2 52.994999 47.1969986 -67.8339997
430 3 53.3979988 48.2130013 -68.4430008
431 3 53.7109986 46.5489998 -67.0419998
432 1 49.1559982 46.9319992 -72.112999
433 2 48.6310005 47.6819992 -73.2519989
434 2 47.105999 47.6660004 -73.3479996
435 3 46.5219994 48.5120011 -74.0199966
436 2 49.2480011 47.1710014 -74.5619965
437 2 48.7970009 45.7700005 -74.963997
438 2 49.7789994 45.0769997 -75.8970032
439 3 49.389 44.4889984 -76.9079972
440 1 51.0629997 45.1450005 -75.560997
441 1 46.4609986 46.7070008 -72.6869965
442 2 45.0 46.6619988 -72.6809998
443 2 44.4469986 47.9710008 -72.1169968
444 3 44.9830018 48.5169983 -71.1549988
445 2 44.4830017 45.4669991 -71.8679962
446 2 44.9550018 44.0970001 -72.362999
447 2 44.3510018 43.6969986 -73.7040024
448 3 43.3120003 44.2659989 -74.0979996
449 3 44.9129982 42.7980004 -74.3610001
450 1 43.3759995 48.4729996 -72.7200012
451 2 42.8059998 49.744999 -72.3160019
452 2 41.941002 49.6349983 -71.0780029
453 3 41.744999 48.5410004 -70.5479965
454 1 41.4160004 50.776001 -70.6100006
455 2 40.5750008 50.8790016 -69.413002
456 2 39.3569985 49.9700012 -69.4800034
457 3 38.9319992 49.4519997 -68.449997
458 2 40.1339989 52.3510018 -69.4280014
459 2 40.4189987 52.8199997 -70.8339997
460 2 41.6739998 52.1040001 -71.1809998
461 1 38.8019982 49.7820015 -70.6719971
462 2 37.6479988 48.9090004 -70.8330002
463 2 37.9970016 47.5060005 -70.3610001
464 3 37.1860008 46.8370018 -69.7180023
465 2 37.1920013 48.8660012 -72.2910004
466 2 37.1279984 50.2299996 -72.9729996
467 2 36.0670013 51.1459999 -72.3799973
468 3 35.1199989 51.5089989 -73.1159973
469 3 36.1759987 51.5040016 -71.1829987
470 1 39.2089996 47.0670013 -70.6819992
471 2 39.6640015 45.7410012 -70.288002
472 2 39.7509995 45.639 -68.7740021
473 3 39.1240006 44.7719994 -68.163002
474 2 41.0270004 45.4160004 -70.915001
475 2 41.598999 44.0979996 -70.4440003
476 2 41.2140007 42.908001 -71.0350037
477 2 42.5130005 44.0439987 -69.3970032
478 2 41.7229996 41.6990013 -70.6090012
479 2 43.0309982 42.8390008 -68.9629974
480 2 42.6290016 41.6660004 -69.574997
481 3 43.1230011 40.4510002 -69.1610031
482 1 40.5219994 46.5390015 -68.1740036
483 2 40.7649994 46.5040016 -66.7330017
484 2 39.4959984 46.6899987 -65.9169998
485 3 39.3009987 46.0099983 -64.913002
486 2 41.8390008 47.5200005 -66.3440018
487 2 43.1310005 47.2019997 -67.0039978
488 2 43.7159996 47.8790016 -68.0299988
489 2 43.9850006 46.0880013 -66.7170029
490 1 44.8919984 47.2669983 -68.3899994
491 2 45.0810013 46.1660004 -67.5970001
492 2 43.9350014 45.0400009 -65.7919998
493 2 46.1150017 45.2350006 -67.5839997
494 2 44.9609986 44.1170006 -65.7799988
495 2 46.0349998 44.2179985 -66.6709976
496 1 38.6269989 47.5970001 -66.3570023
497 2 37.3380013 47.7799988 -65.7040024
498 2 36.5610008 46.4630013 -65.6900025
499 3 36.0040016 46.0709991 -64.6589966
500 2 36.5250016 48.8790016 -66.3939972
501 2 37.0849991 50.2779999 -66.1320038
502 3 38.0229988 50.4140015 -65.3130036
503 3 36.5830002 51.2459984 -66.7490006
504 1 36.5359993 45.7859993 -66.8359986
505 2 35.8409996 44.5180016 -66.9749986
506 2 36.4000015 43.3919983 -66.1169968
507 3 35.6489983 42.6609993 -65.4710007
508 1 37.7190018 43.2439995 -66.112999
509 2 38.3499985 42.1899986 -65.3349991
510 2 38.1629982 42.4669991 -63.8520012
511 3 38.007 41.5449982 -63.0470009
512 2 39.8380013 42.0820007 -65.6709976
513 2 40.1160011 41.6990013 -67.1159973
514 2 39.3909989 40.4360008 -67.526001
515 3 39.5489998 39.4129982 -66.8290024
516 3 38.6699982 40.4630013 -68.5500031
517 1 38.1730003 43.75 -63.5040016
518 2 37.9840012 44.1669998 -62.1279984
519 2 36.5839997 43.8170014 -61.6489983
520 3 36.4129982 43.2879982 -60.5589981
521 2 38.2589989 45.6739998 -61.9490014
522 3 39.6669998 45.915001 -62.0750008
523 2 37.7989998 46.1450005 -60.5810013
524 1 35.5810013 44.0929985 -62.4710007
525 2 34.2109985 43.7509995 -62.1049995
526 2 34.019001 42.2400017 -62.0130005
527 3 33.3959999 41.7400017 -61.0830002
528 2 33.2260018 44.355999 -63.0979996
529 2 33.1450005 45.8689996 -62.9959984
530 2 32.9609986 46.5079994 -64.3580017
531 1 31.6800003 46.158001 -64.9580002
532 2 31.3920002 46.3320007 -66.2429962
533 1 32.3030014 46.8440018 -67.0650024
534 1 30.1989994 45.9900018 -66.7080002
535 1 34.5649987 41.5159989 -62.9799996
536 2 34.4389992 40.0660019 -62.9970016
537 2 35.1209984 39.4339981 -61.7799988
538 3 34.5610008 38.5509987 -61.137001
539 2 34.9910012 39.4980011 -64.310997
540 2 34.1399994 39.8520012 -65.5339966
541 2 34.6529999 39.1899986 -66.8160019
542 2 35.8390008 39.9370004 -67.4079971
543 1 36.3030014 39.3120003 -68.685997
544 1 36.3160019 39.9070016 -61.4480019
545 2 37.0740013 39.3059998 -60.3569985
546 2 36.4039993 39.5730019 -59.0060005
547 3 36.487999 38.7529984 -58.0880013
548 2 38.5600014 39.75 -60.3660011
549 2 38.7210007 41.1380005 -59.7750016
550 2 39.4220009 38.737999 -59.6349983
551 1 35.7130013 40.7060013 -58.901001
552 2 34.9129982 41.007 -57.7169991
553 2 33.6990013 40.0820007 -57.605999
554 3 33.3670006 39.6100006 -56.5219994
555 2 34.4599991 42.4679985 -57.7260018
556 2 35.5629998 43.4640007 -57.3979988
557 2 35.0279999 44.894001 -57.4000015
558 2 36.0839996 45.8880006 -56.9529992
559 1 35.639 47.2999992 -57.1739998
560 1 33.0359993 39.8330002 -58.7319985
561 2 31.8950006 38.9239998 -58.757
562 2 32.3320007 37.5060005 -58.3950005
563 3 31.5690003 36.7439995 -57.8030014
564 2 31.2310009 38.9420014 -60.1290016
565 1 33.5589981 37.1599999 -58.776001
566 2 34.1609993 35.8860016 -58.4020004
567 2 34.3919983 35.8639984 -56.8950006
568 3 34.0870018 34.882 -56.2190018
569 2 35.4990006 35.6980019 -59.1150017
570 2 35.3790016 35.2420006 -60.5349999
571 1 34.7869988 36.007 -61.5200005
572 2 35.8019982 34.1110001 -61.1479988
573 2 34.8390008 35.3619995 -62.6679993
574 1 35.4510002 34.2039986 -62.4710007
575 1 34.9519998 36.9539986 -56.3800011
576 2 35.1679993 37.1010017 -54.9490014
577 2 33.8549996 36.9329988 -54.2000008
578 3 33.7369995 36.1049995 -53.2929993
579 2 35.7540016 38.4749985 -54.6450005
580 3 35.8429986 38.6800003 -53.2540016
581 1 32.8639984 37.7229996 -54.5940018
582 2 31.5650006 37.6949997 -53.9389992
583 2 30.9599992 36.2949982 -53.9529992
584 3 30.3929997 35.8450012 -52.9620018
585 2 30.6130009 38.6930008 -54.6010018
586 2 29.2350006 38.7350006 -53.9690018
587 2 29.2900009 38.9799996 -52.4720001
588 3 30.1739998 39.6839981 -51.9749986
589 1 28.3409996 38.3979988 -51.7439995
590 1 31.0790005 35.605999 -55.0800018
591 2 30.5060005 34.2729988 -55.2010002
592 2 31.1119995 33.2980003 -54.1910019
593 3 30.4020004 32.5029984 -53.5779991
594 2 30.6790009 33.7150002 -56.6230011
595 3 29.7950001 34.408001 -57.5149994
596 2 30.3479996 32.2360001 -56.651001
597 1 32.4249993 33.3569985 -54.0180016
598 2 33.0919991 32.4239998 -53.1189995
599 2 32.9210014 32.8199997 -51.6489983
600 3 32.9790002 31.9729996 -50.7579994
601 2 34.5579987 32.2400017 -53.5289994
602 2 34.7169991 31.7740002 -54.9449998
603 1 35.5460015 32.3989983 -55.8520012
604 2 34.1049995 30.7730007 -55.625
605 2 35.4589997 31.7880001 -57.0209999
606 1 34.5929985 30.7970009 -56.9099998
607 1 32.6739998 34.1020012 -51.4049988
608 2 32.3590012 34.5579987 -50.0579987
609 2 31.0919991 33.8600006 -49.5839997
610 3 30.9939996 33.4249993 -48.4350014
611 2 32.1759987 36.0789986 -50.0219994
612 2 31.8239994 36.6230011 -48.6409989
613 2 31.9939996 38.1360016 -48.5649987
614 1 30.844 38.876999 -49.0789986
615 2 30.7740002 40.2080002 -49.1329994
616 1 31.7900009 40.9490014 -48.7039986
617 1 29.6889992 40.8030014 -49.6180001
618 1 30.1229992 33.7509995 -50.4850006
619 2 28.8859998 33.0429993 -50.1889992
620 2 29.1359997 31.5349999 -50.0900002
621 3 28.6049996 30.8700008 -49.1969986
622 2 27.8040009 33.3530007 -51.2490006
623 2 26.658001 32.3499985 -51.1759987
624 2 27.2950001 34.7849999 -51.0760002
625 1 29.9640008 31.0100002 -50.993
626 2 30.2779999 29.5779991 -51.0279999
627 2 30.8379994 29.0470009 -49.7089997
628 3 30.5039997 27.9419994 -49.2890015
629 2 31.2810001 29.2670002 -52.1399994
630 2 30.6749993 29.3810005 -53.5299988
631 3 29.4349995 29.3999996 -53.6570015
632 3 31.4519997 29.448 -54.4970017
633 1 31.7180004 29.8180008 -49.0789986
634 2 32.2869988 29.4160004 -47.7980004
635 2 31.184 29.1590004 -46.7729988
636 3 31.243 28.1900005 -46.0169983
637 2 33.2599983 30.4759999 -47.2809982
638 2 34.6069985 30.5580006 -48.0
639 2 35.2960014 31.896 -47.7410012
640 2 35.4920006 29.3899994 -47.5830002
641 1 30.1770001 30.0249996 -46.7540016
642 2 29.059 29.8540002 -45.8460008
643 2 28.2290001 28.6490002 -46.2340012
644 3 27.8250008 27.8579998 -45.3849983
645 1 27.9860002 28.5020008 -47.5320015
646 2 27.2040005 27.382 -48.0400009
647 2 27.8530006 26.0470009 -47.6910019
648 3 27.1800003 25.1110001 -47.2470017
649 2 27.0319996 27.4710007 -49.5649987
650 3 26.4400006 28.7299996 -49.903
651 2 26.1439991 26.3390007 -50.0730019
652 1 29.1650009 25.9680004 -47.894001
653 2 29.9120008 24.7399998 -47.6419983
654 2 29.9990006 24.4239998 -46.1479988
655 3 29.9500008 23.2649994 -45.7490006
656 2 31.3099995 24.8320008 -48.264
657 2 31.2889996 24.8449994 -49.7929993
658 2 32.6090012 25.3309994 -50.368
659 2 30.9379998 23.4650002 -50.3230019
660 1 30.1289997 25.4570008 -45.3269997
661 2 30.1270008 25.2590008 -43.8829994
662 2 28.8029995 24.639 -43.4360008
663 3 28.7700005 23.8120003 -42.5320015
664 2 30.3719998 26.5750008 -43.1469994
665 2 30.4680004 26.4090004 -41.6479988
666 2 30.8479996 27.7010002 -40.9609986
667 1 29.7280007 28.6310005 -40.8740006
668 2 28.7840004 28.5799999 -39.9389992
669 1 28.8150006 27.6329994 -39.007
670 1 27.8050003 29.4750004 -39.9370004
671 1 27.7129994 25.0380001 -44.0820007
672 2 26.4120007 24.4680004 -43.7939987
673 2 26.3010006 23.0480003 -44.3139992
674 3 25.856001 22.1539993 -43.6010018
675 1 26.7010002 22.844 -45.5649987
676 2 26.7059994 21.5130005 -46.1679993
677 2 27.3670006 20.4750004 -45.257
678 3 26.8990002 19.3390007 -45.1500015
679 2 27.4470005 21.5400009 -47.5060005
680 2 26.6560002 22.0919991 -48.6739998
681 2 25.4619999 22.7719994 -48.4819985
682 2 27.1310005 21.9580002 -49.9729996
683 2 24.7520008 23.283001 -49.5600014
684 2 26.434 22.4680004 -51.0509987
685 2 25.2490006 23.1289997 -50.8409996
686 3 24.5599995 23.632 -51.9169998
687 1 28.4610005 20.868 -44.6100006
688 2 29.2070007 19.9489994 -43.7579994
689 2 28.9529992 20.1889992 -42.2669983
690 3 29.6189995 19.6009999 -41.4220009
691 2 30.7049999 20.0380001 -44.0649986
692 2 31.0709991 19.5620003 -45.4539986
693 2 31.1399994 18.2070007 -45.7470017
694 2 31.3589993 20.4659996 -46.4700012
695 2 31.4780007 17.7630005 -47.0159988
696 2 31.6949997 20.0310001 -47.7430001
697 2 31.7520008 18.6809998 -48.0089989
698 3 32.0839996 18.2409992 -49.2700005
699 1 27.9850006 21.0480003 -41.9589996
700 2 27.6599999 21.4160004 -40.5820008
701 2 28.8939992 21.7290001 -39.744999
702 3 29.0340004 21.243 -38.6279984
703 2 26.8190003 20.3320007 -39.8950006
704 2 26.1149998 20.8430004 -38.6370011
705 3 25.6399994 21.9769994 -38.5929985
706 1 26.0429993 20.0009995 -37.6119995
707 1 29.7840004 22.5489998 -40.2879982
708 2 31.0 22.9239998 -39.5810013
709 2 30.7770005 24.1499996 -38.6959992
710 3 29.8729992 24.9470006 -38.9370004
711 2 32.1450005 23.1529999 -40.5740013
712 2 32.5480004 21.8869992 -41.3289986
713 2 33.3930016 22.1630001 -42.5680008
714 3 33.269001 23.2129994 -43.2050018
715 1 34.2490006 21.2110005 -42.9189988
716 1 31.5960007 24.283001 -37.658001
717 2 31.474001 25.3950005 -36.7260018
718 2 32.0769997 26.6690007 -37.3050003
719 3 32.7970009 26.6299992 -38.3040009
720 2 32.1650009 25.0599995 -35.4039993
721 3 33.5690003 24.9780006 -35.5769997
722 1 31.7849999 27.7950001 -36.6609993
723 2 32.3269997 29.0849991 -37.0680008
724 2 33.7490006 29.2700005 -36.5470009
725 3 34.4179993 30.2490006 -36.8759996
726 2 31.4360008 30.2189999 -36.5550003
727 2 29.9599992 30.0270004 -36.8730012
728 2 29.0949993 31.1770001 -36.3800011
729 3 29.1469994 31.4990006 -35.1720009
730 3 28.3560009 31.7549992 -37.2039986
731 1 34.2080002 28.3239994 -35.7360001
732 2 35.5239983 28.4270001 -35.1150017
733 2 36.6749993 28.3129997 -36.1150017
734 3 37.6739998 29.0209999 -36.0009995
735 2 35.6769982 27.3759995 -34.0200005
736 1 36.5390015 27.4179993 -37.0880013
737 2 37.6469994 27.1030006 -37.9710008
738 2 37.7130013 27.8929996 -39.2669983
739 3 36.6969986 28.3419991 -39.7970009
740 1 38.929001 28.0610008 -39.7750016
741 2 39.1389999 28.6550007 -41.0849991
742 2 39.0239983 27.5849991 -42.1599999
743 3 39.5379982 26.4790001 -42.0029984
744 2 40.5130005 29.3190003 -41.1619988
745 3 40.764 29.7870007 -42.4760018
746 1 38.3390007 27.9130002 -43.2490006
747 2 38.1819992 26.9720002 -44.3520012
748 2 38.5509987 27.6100006 -45.6839981
749 3 38.5530014 28.8339997 -45.8289986
750 2 36.7649994 26.3969994 -44.3849983
751 2 36.4189987 25.5900002 -43.1739998
752 1 36.6310005 24.2269993 -43.0999985
753 2 35.887001 25.9489994 -41.9819984
754 2 36.2369995 23.7859993 -41.922001
755 1 35.7809983 24.8099995 -41.2210007
756 1 38.8650018 26.764 -46.6539994
757 2 39.4700012 27.2240009 -47.894001
758 2 38.6980019 26.7380009 -49.112999
759 3 38.4770012 25.5370007 -49.2849999
760 2 40.9189988 26.7140007 -48.0079994