  ***,Fe atom, mult=5
 geometry={Fe}
 gthresh,oneint=1e-18,twoint=1e-18                                               !,THROVL=1e-11,THRORTH=2.d-6
 THRESH,ENERGY=1d-16
 
 basis=aug-cc-pVDZ
 
 memory 2433, M
 
 print basis,orbitals=2,civector
 
 wf,charge=0,spin=4
                                                                                 !core
 
 {rhf;maxit,9999}
 {rcisd;core,3,2,2,0,2,0,0,0;maxit,9999}
 {rccsd(t);core,3,2,2,0,2,0,0,0;maxit,9999}
 {uccsd(t);core,3,2,2,0,2,0,0,0;maxit,9999}
                                                                                 !{mrcc,method=CC(n),excitation=2,restart=2}
 uhf
                                                                                 !{mrcc,method=CC(n),excitation=2,restart=1}
 casscf
 {fciqmc;core,3,2,2,0,2,0,0,0}
 {fci;core,3,2,2,0,2,0,0,0}
 
 

 Variables initialized (778), CPU time= 0.00 sec
 Commands  initialized (547), CPU time= 0.02 sec, 516 directives.
 Default parameters read. Elapsed time= 0.11 sec

 Checking input...
 Passed
1


                                         ***  PROGRAM SYSTEM MOLPRO  ***
                         Copyright, University College Cardiff Consultants Limited, 2008

                                    Version 2012.1 linked Apr  1 2014 15:33:03


 **********************************************************************************************************************************
 LABEL *                                                                                 
 Linux-2.6.32-358.14.1.el6.x86_64/wob102(x86_64) 64 bit serial version                   DATE: 12-Jan-19          TIME: 07:39:28  
 **********************************************************************************************************************************

 SHA1:             960ce83de8be0427555cf121dea4debc26c720b5
 **********************************************************************************************************************************

 THRESHOLDS:

 ZERO    =  1.00D-12  ONEINT  =  1.00D-18  TWOINT  =  1.00D-18  PREFAC  =  1.00D-14  LOCALI  =  1.00D-09  EORDER  =  1.00D-04
 ENERGY  =  0.00D+00  ETEST   =  0.00D+00  EDENS   =  0.00D+00  THRDEDEF=  1.00D-06  GRADIENT=  1.00D-02  STEP    =  1.00D-03
 ORBITAL =  1.00D-05  CIVEC   =  1.00D-05  COEFF   =  1.00D-04  PRINTCI =  5.00D-02  PUNCHCI =  9.90D+01  OPTGRAD =  3.00D-04
 OPTENERG=  1.00D-06  OPTSTEP =  3.00D-04  THRGRAD =  1.00D-10  COMPRESS=  1.00D-11  VARMIN  =  1.00D-07  VARMAX  =  1.00D-03
 THRDOUB =  0.00D+00  THRDIV  =  1.00D-05  THRRED  =  1.00D-07  THRPSP  =  1.00D+00  THRDC   =  1.00D-10  THRCS   =  1.00D-10
 THRNRM  =  1.00D-08  THREQ   =  0.00D+00  THRDE   =  1.00D+00  THRREF  =  1.00D-05  SPARFAC =  1.00D+00  THRDLP  =  1.00D-07
 THRDIA  =  1.00D-10  THRDLS  =  1.00D-07  THRGPS  =  0.00D+00  THRKEX  =  0.00D+00  THRDIS  =  2.00D-01  THRVAR  =  1.00D-10
 THRLOC  =  1.00D-06  THRGAP  =  1.00D-06  THRLOCT = -1.00D+00  THRGAPT = -1.00D+00  THRORB  =  1.00D-06  THRMLTP =  0.00D+00
 THRCPQCI=  1.00D-10  KEXTA   =  0.00D+00  THRCOARS=  0.00D+00  SYMTOL  =  1.00D-06  GRADTOL =  1.00D-06  THROVL  =  1.00D-08
 THRORTH =  1.00D-08  GRID    =  1.00D-06  GRIDMAX =  1.00D-03  DTMAX   =  0.00D+00  THROCCDE=  1.00D-01  THROCCDE=  1.00D-01



 THRESHOLDS:

 ZERO    =  1.00D-12  ONEINT  =  1.00D-18  TWOINT  =  1.00D-18  PREFAC  =  1.00D-14  LOCALI  =  1.00D-09  EORDER  =  1.00D-04
 ENERGY  =  1.00D-16  ETEST   =  0.00D+00  EDENS   =  0.00D+00  THRDEDEF=  1.00D-06  GRADIENT=  1.00D-02  STEP    =  1.00D-03
 ORBITAL =  1.00D-05  CIVEC   =  1.00D-05  COEFF   =  1.00D-04  PRINTCI =  5.00D-02  PUNCHCI =  9.90D+01  OPTGRAD =  3.00D-04
 OPTENERG=  1.00D-06  OPTSTEP =  3.00D-04  THRGRAD =  1.00D-10  COMPRESS=  1.00D-11  VARMIN  =  1.00D-07  VARMAX  =  1.00D-03
 THRDOUB =  0.00D+00  THRDIV  =  1.00D-05  THRRED  =  1.00D-07  THRPSP  =  1.00D+00  THRDC   =  1.00D-10  THRCS   =  1.00D-10
 THRNRM  =  1.00D-08  THREQ   =  0.00D+00  THRDE   =  1.00D+00  THRREF  =  1.00D-05  SPARFAC =  1.00D+00  THRDLP  =  1.00D-07
 THRDIA  =  1.00D-10  THRDLS  =  1.00D-07  THRGPS  =  0.00D+00  THRKEX  =  0.00D+00  THRDIS  =  2.00D-01  THRVAR  =  1.00D-10
 THRLOC  =  1.00D-06  THRGAP  =  1.00D-06  THRLOCT = -1.00D+00  THRGAPT = -1.00D+00  THRORB  =  1.00D-06  THRMLTP =  0.00D+00
 THRCPQCI=  1.00D-10  KEXTA   =  0.00D+00  THRCOARS=  0.00D+00  SYMTOL  =  1.00D-06  GRADTOL =  1.00D-06  THROVL  =  1.00D-08
 THRORTH =  1.00D-08  GRID    =  1.00D-06  GRIDMAX =  1.00D-03  DTMAX   =  0.00D+00  THROCCDE=  1.00D-01  THROCCDE=  1.00D-01



 Variable memory set to    8000000 words,  buffer space   230000 words

 SETTING BASIS          =    AUG-CC-PVDZ


 Variable memory set to 2433000000 words,  buffer space   230000 words



 Recomputing integrals since basis changed


 Using spherical harmonics

 Library entry FE     S aug-cc-pVDZ          selected for orbital group  1
 Library entry FE     P aug-cc-pVDZ          selected for orbital group  1
 Library entry FE     D aug-cc-pVDZ          selected for orbital group  1
 Library entry FE     F aug-cc-pVDZ          selected for orbital group  1

1PROGRAM * SEWARD (Integral evaluation for generally contracted gaussian basis sets)     Author: Roland Lindh, 1990

 Geometry written to block  1 of record 700

 Orientation using atomic masses  
 Molecule type: Atom
 Symmetry elements: X,Y,Z
 Rotational constants:       0.0000000      0.0000000      0.0000000 GHz  (calculated with average atomic masses)

 Point group  D2h 



 ATOMIC COORDINATES

 NR  ATOM    CHARGE       X              Y              Z

   1  FE     26.00    0.000000000    0.000000000    0.000000000


 BASIS DATA

   Nr Sym  Nuc  Type         Exponents   Contraction coefficients

    1.1 Ag   1  1s      4316265.000000     0.000008   -0.000004    0.000001   -0.000000   -0.000000    0.000000
    2.1 Ag               646342.400000     0.000063   -0.000032    0.000007   -0.000002   -0.000003    0.000000
    3.1 Ag               147089.700000     0.000329   -0.000170    0.000039   -0.000008   -0.000016    0.000000
    4.1 Ag                41661.520000     0.001387   -0.000717    0.000165   -0.000036   -0.000072    0.000000
    5.1 Ag                13590.770000     0.005023   -0.002604    0.000599   -0.000130   -0.000246    0.000000
    6.1 Ag                 4905.750000     0.016101   -0.008399    0.001942   -0.000420   -0.000854    0.000000
                           1912.746000     0.045900   -0.024341    0.005687   -0.001232   -0.002308    0.000000
                            792.604300     0.113615   -0.062519    0.015013   -0.003249   -0.006728    0.000000
                            344.806500     0.228387   -0.136593    0.034525   -0.007494   -0.013662    0.000000
                            155.899900     0.322116   -0.231271    0.064958   -0.014101   -0.030622    0.000000
                             72.230910     0.238366   -0.238373    0.077162   -0.016916   -0.026311    0.000000
                             32.725060     0.074047    0.031238   -0.018734    0.004219   -0.009760    0.000000
                             15.667620     0.092142    0.508682   -0.300918    0.068338    0.180191    0.000000
                              7.503483     0.093398    0.498769   -0.455466    0.109820    0.152963    0.000000
                              3.312223     0.015740    0.090336    0.128646   -0.040090    0.055054    0.000000
                              1.558471    -0.000419   -0.006005    0.718332   -0.217474   -0.955136    0.000000
                              0.683914     0.000054    0.000231    0.405174   -0.246513    0.258681    0.000000
                              0.146757    -0.000038   -0.000564    0.021682    0.273143    1.834049    0.000000
                              0.070583     0.000043    0.000499   -0.008344    0.574832   -0.933324    0.000000
                              0.031449    -0.000003   -0.000102    0.003659    0.301271   -0.698160    1.000000
    7.1 Ag   1  1s            0.014010     1.000000
    8.1 Ag   1  3d0         113.344000     0.003530
                             33.641400     0.025784
                             12.331000     0.099119
                              4.994780     0.239073
                              2.072800     0.357199
                              0.830753     0.362188
                              0.309178     0.236461
                              0.100130     0.060118
    9.1 Ag   1  3d2+        113.344000     0.003530
                             33.641400     0.025784
                             12.331000     0.099119
                              4.994780     0.239073
                              2.072800     0.357199
                              0.830753     0.362188
                              0.309178     0.236461
                              0.100130     0.060118
   10.1 Ag   1  3d0         113.344000    -0.003890
                             33.641400    -0.028442
                             12.331000    -0.112429
                              4.994780    -0.274257
                              2.072800    -0.315546
                              0.830753     0.057109
                              0.309178     0.563604
                              0.100130     0.384637
   11.1 Ag   1  3d2+        113.344000    -0.003890
                             33.641400    -0.028442
                             12.331000    -0.112429
                              4.994780    -0.274257
                              2.072800    -0.315546
                              0.830753     0.057109
                              0.309178     0.563604
                              0.100130     0.384637
   12.1 Ag   1  3d0         113.344000     0.000000
                             33.641400     0.000000
                             12.331000     0.000000
                              4.994780     0.000000
                              2.072800     0.000000
                              0.830753     0.000000
                              0.309178     0.000000
                              0.100130     1.000000
   13.1 Ag   1  3d2+        113.344000     0.000000
                             33.641400     0.000000
                             12.331000     0.000000
                              4.994780     0.000000
                              2.072800     0.000000
                              0.830753     0.000000
                              0.309178     0.000000
                              0.100130     1.000000
   14.1 Ag   1  3d0           0.032430     1.000000
   15.1 Ag   1  3d2+          0.032430     1.000000
    1.2 B3   1  2px       17745.690000     0.000041   -0.000015    0.000003    0.000005    0.000000
    2.2 B3u                4200.721000     0.000369   -0.000130    0.000029    0.000042    0.000000
    3.2 B3u                1364.429000     0.002129   -0.000751    0.000165    0.000241    0.000000
    4.2 B3u                 522.080600     0.009369   -0.003329    0.000734    0.001085    0.000000
    5.2 B3u                 221.459500     0.033097   -0.011912    0.002626    0.003831    0.000000
                            100.909600     0.094431   -0.034933    0.007725    0.011423    0.000000
                             48.401150     0.208077   -0.079989    0.017733    0.025792    0.000000
                             23.985360     0.332333   -0.134636    0.030055    0.044818    0.000000
                             12.182500     0.332987   -0.138598    0.031094    0.044598    0.000000
                              6.242298     0.156843    0.030278   -0.010048   -0.011177    0.000000
                              3.110944     0.021549    0.333216   -0.088306   -0.138134    0.000000
                              1.509958    -0.002095    0.456153   -0.129824   -0.188285    0.000000
                              0.710845    -0.001739    0.285051   -0.076937   -0.107399    0.000000
                              0.273190    -0.000300    0.046144    0.212661    0.444863    0.000000
                              0.104233     0.000029   -0.003249    0.573061    0.640239    0.000000
                              0.038291    -0.000011    0.001357    0.369651    0.064457    1.000000
    6.2 B3   1  2px           0.014070     1.000000
    7.2 B3   1  4f1+          3.224300     0.422249
                              0.775800     0.771468
    8.2 B3   1  4f3+          3.224300     0.422249
                              0.775800     0.771468
    9.2 B3   1  4f1+          0.274900     1.000000
   10.2 B3   1  4f3+          0.274900     1.000000
    1.3 B2   1  2py       17745.690000     0.000041   -0.000015    0.000003    0.000005    0.000000
    2.3 B2u                4200.721000     0.000369   -0.000130    0.000029    0.000042    0.000000
    3.3 B2u                1364.429000     0.002129   -0.000751    0.000165    0.000241    0.000000
    4.3 B2u                 522.080600     0.009369   -0.003329    0.000734    0.001085    0.000000
    5.3 B2u                 221.459500     0.033097   -0.011912    0.002626    0.003831    0.000000
                            100.909600     0.094431   -0.034933    0.007725    0.011423    0.000000
                             48.401150     0.208077   -0.079989    0.017733    0.025792    0.000000
                             23.985360     0.332333   -0.134636    0.030055    0.044818    0.000000
                             12.182500     0.332987   -0.138598    0.031094    0.044598    0.000000
                              6.242298     0.156843    0.030278   -0.010048   -0.011177    0.000000
                              3.110944     0.021549    0.333216   -0.088306   -0.138134    0.000000
                              1.509958    -0.002095    0.456153   -0.129824   -0.188285    0.000000
                              0.710845    -0.001739    0.285051   -0.076937   -0.107399    0.000000
                              0.273190    -0.000300    0.046144    0.212661    0.444863    0.000000
                              0.104233     0.000029   -0.003249    0.573061    0.640239    0.000000
                              0.038291    -0.000011    0.001357    0.369651    0.064457    1.000000
    6.3 B2   1  2py           0.014070     1.000000
    7.3 B2   1  4f1-          3.224300     0.422249
                              0.775800     0.771468
    8.3 B2   1  4f3-          3.224300     0.422249
                              0.775800     0.771468
    9.3 B2   1  4f1-          0.274900     1.000000
   10.3 B2   1  4f3-          0.274900     1.000000
    1.4 B1   1  3d2-        113.344000     0.003530   -0.003890    0.000000
    2.4 B1g                  33.641400     0.025784   -0.028442    0.000000
    3.4 B1g                  12.331000     0.099119   -0.112429    0.000000
                              4.994780     0.239073   -0.274257    0.000000
                              2.072800     0.357199   -0.315546    0.000000
                              0.830753     0.362188    0.057109    0.000000
                              0.309178     0.236461    0.563604    0.000000
                              0.100130     0.060118    0.384637    1.000000
    4.4 B1   1  3d2-          0.032430     1.000000
    1.5 B1   1  2pz       17745.690000     0.000041   -0.000015    0.000003    0.000005    0.000000
    2.5 B1u                4200.721000     0.000369   -0.000130    0.000029    0.000042    0.000000
    3.5 B1u                1364.429000     0.002129   -0.000751    0.000165    0.000241    0.000000
    4.5 B1u                 522.080600     0.009369   -0.003329    0.000734    0.001085    0.000000
    5.5 B1u                 221.459500     0.033097   -0.011912    0.002626    0.003831    0.000000
                            100.909600     0.094431   -0.034933    0.007725    0.011423    0.000000
                             48.401150     0.208077   -0.079989    0.017733    0.025792    0.000000
                             23.985360     0.332333   -0.134636    0.030055    0.044818    0.000000
                             12.182500     0.332987   -0.138598    0.031094    0.044598    0.000000
                              6.242298     0.156843    0.030278   -0.010048   -0.011177    0.000000
                              3.110944     0.021549    0.333216   -0.088306   -0.138134    0.000000
                              1.509958    -0.002095    0.456153   -0.129824   -0.188285    0.000000
                              0.710845    -0.001739    0.285051   -0.076937   -0.107399    0.000000
                              0.273190    -0.000300    0.046144    0.212661    0.444863    0.000000
                              0.104233     0.000029   -0.003249    0.573061    0.640239    0.000000
                              0.038291    -0.000011    0.001357    0.369651    0.064457    1.000000
    6.5 B1   1  2pz           0.014070     1.000000
    7.5 B1   1  4f0           3.224300     0.422249
                              0.775800     0.771468
    8.5 B1   1  4f2+          3.224300     0.422249
                              0.775800     0.771468
    9.5 B1   1  4f0           0.274900     1.000000
   10.5 B1   1  4f2+          0.274900     1.000000
    1.6 B2   1  3d1+        113.344000     0.003530   -0.003890    0.000000
    2.6 B2g                  33.641400     0.025784   -0.028442    0.000000
    3.6 B2g                  12.331000     0.099119   -0.112429    0.000000
                              4.994780     0.239073   -0.274257    0.000000
                              2.072800     0.357199   -0.315546    0.000000
                              0.830753     0.362188    0.057109    0.000000
                              0.309178     0.236461    0.563604    0.000000
                              0.100130     0.060118    0.384637    1.000000
    4.6 B2   1  3d1+          0.032430     1.000000
    1.7 B3   1  3d1-        113.344000     0.003530   -0.003890    0.000000
    2.7 B3g                  33.641400     0.025784   -0.028442    0.000000
    3.7 B3g                  12.331000     0.099119   -0.112429    0.000000
                              4.994780     0.239073   -0.274257    0.000000
                              2.072800     0.357199   -0.315546    0.000000
                              0.830753     0.362188    0.057109    0.000000
                              0.309178     0.236461    0.563604    0.000000
                              0.100130     0.060118    0.384637    1.000000
    4.7 B3   1  3d1-          0.032430     1.000000
    1.8 Au   1  4f2-          3.224300     0.422249
                              0.775800     0.771468
    2.8 Au   1  4f2-          0.274900     1.000000

 NUCLEAR CHARGE:                   26
 NUMBER OF PRIMITIVE AOS:         156
 NUMBER OF SYMMETRY AOS:          138
 NUMBER OF CONTRACTIONS:           59   (  15Ag  +  10B3u +  10B2u +   4B1g +  10B1u +   4B2g +   4B3g +   2Au  )
 NUMBER OF CORE ORBITALS:           9   (   3Ag  +   2B3u +   2B2u +   0B1g +   2B1u +   0B2g +   0B3g +   0Au  )
 NUMBER OF VALENCE ORBITALS:        6   (   3Ag  +   0B3u +   0B2u +   1B1g +   0B1u +   1B2g +   1B3g +   0Au  )


 NUCLEAR REPULSION ENERGY    0.00000000

 EXTRA SYMMETRY OF AOS IN SYMMETRY 1:   1 1 1 1 1 1 1 2 3 2   3 2 3 2 3
 EXTRA SYMMETRY OF AOS IN SYMMETRY 2:   1 1 1 1 1 1 2 3 2 3
 EXTRA SYMMETRY OF AOS IN SYMMETRY 3:   1 1 1 1 1 1 2 3 2 3
 EXTRA SYMMETRY OF AOS IN SYMMETRY 5:   1 1 1 1 1 1 2 3 2 3

 Eigenvalues of metric

         1 0.699E-02 0.169E+00 0.169E+00 0.172E+00 0.686E+00 0.686E+00 0.987E+00 0.100E+01
         2 0.141E-02 0.143E+00 0.542E+00 0.542E+00 0.805E+00 0.100E+01 0.101E+01 0.146E+01
         3 0.141E-02 0.143E+00 0.542E+00 0.542E+00 0.805E+00 0.100E+01 0.101E+01 0.146E+01
         4 0.169E+00 0.686E+00 0.101E+01 0.213E+01
         5 0.141E-02 0.143E+00 0.542E+00 0.542E+00 0.805E+00 0.100E+01 0.101E+01 0.146E+01
         6 0.169E+00 0.686E+00 0.101E+01 0.213E+01
         7 0.169E+00 0.686E+00 0.101E+01 0.213E+01
         8 0.542E+00 0.146E+01


 Contracted 2-electron integrals neglected if value below      1.0D-18
 AO integral compression algorithm  1   Integral accuracy      1.0D-18

     3.146 MB (compressed) written to integral file ( 93.2%)


 NUMBER OF SORTED TWO-ELECTRON INTEGRALS:     219021.     BUFFER LENGTH:  32768
 NUMBER OF SEGMENTS:   1  SEGMENT LENGTH:     219021      RECORD LENGTH: 524288

 Memory used in sort:       0.78 MW

 SORT1 READ      449913. AND WROTE      186895. INTEGRALS IN      1 RECORDS. CPU TIME:     0.02 SEC, REAL TIME:     0.02 SEC
 SORT2 READ      186895. AND WROTE      219021. INTEGRALS IN     12 RECORDS. CPU TIME:     0.05 SEC, REAL TIME:     0.05 SEC

 FILE SIZES:   FILE 1:    10.8 MBYTE,  FILE 4:     4.2 MBYTE,   TOTAL:     15.0 MBYTE

 OPERATOR DM      FOR CENTER  0  COORDINATES:    0.000000    0.000000    0.000000


 **********************************************************************************************************************************
 DATASETS  * FILE   NREC   LENGTH (MB)   RECORD NAMES
              1      19        9.10       500      610      700      900      950      970     1000      129      960     1100   
                                          VAR    BASINP    GEOM    SYMINP    ZMAT    AOBASIS   BASIS     P2S    ABASIS      S 
                                         1400     1410     1200     1210     1080     1600     1650     1300     1700   
                                           T        V       H0       H01     AOSYM     SMH    MOLCAS    ERIS     OPER   

 PROGRAMS   *        TOTAL       INT
 CPU TIMES  *         2.29      2.09
 REAL TIME  *         2.75 SEC
 DISK USED  *        15.27 MB      
 **********************************************************************************************************************************

1PROGRAM * RHF-SCF (OPEN SHELL)       Authors: W. Meyer, H.-J. Werner


 NUMBER OF ELECTRONS:      15+   11-
 CONVERGENCE THRESHOLDS:    1.00E-06 (Density)    1.00E-17 (Energy)
 MAX. NUMBER OF ITERATIONS:     9999
 INTERPOLATION TYPE:            DIIS
 INTERPOLATION STEPS:              2 (START)      1 (STEP)
 LEVEL SHIFTS:                 -0.30 (CLOSED)  0.00 (OPEN) 



 Orbital guess generated from atomic densities. Full valence occupancy:    6   2   2   1   2   1   1   0


 Molecular orbital dump at record        2100.2

 Initial alpha occupancy:   6   2   2   1   2   1   1   0
 Initial beta  occupancy:   5   2   2   0   2   0   0   0
 Wave function symmetry:    1

 ITERATION    DDIFF          GRAD             ENERGY        2-EL.EN.            DIPOLE MOMENTS         DIIS   ORB.
    1      0.000D+00      0.000D+00     -1262.32004871    988.258982    0.00000    0.00000    0.00000    0    start
    2      0.000D+00      0.301D-01     -1262.34618152    964.170781    0.00000    0.00000    0.00000    1    diag,B
    3      0.998D-01      0.220D-01     -1262.37817466    975.043025    0.00000    0.00000    0.00000    2    diag,B
    4      0.393D-01      0.183D-02     -1262.37878047    974.501414    0.00000    0.00000    0.00000    3    diag,B
    5      0.578D-02      0.548D-03     -1262.37890527    974.335357    0.00000    0.00000    0.00000    4    diag,B
    6      0.238D-02      0.149D-03     -1262.37891630    974.283161    0.00000    0.00000    0.00000    5    diag,B
    7      0.517D-03      0.345D-04     -1262.37891675    974.292737    0.00000    0.00000    0.00000    6    fixocc
    8      0.244D-03      0.791D-05     -1262.37891680    974.291876    0.00000    0.00000    0.00000    7    diag,B
    9      0.630D-04      0.263D-05     -1262.37891681    974.292412    0.00000    0.00000    0.00000    8    diag,B
   10      0.229D-04      0.323D-06     -1262.37891681    974.292341    0.00000    0.00000    0.00000    9    orth
   11      0.308D-05      0.808D-07     -1262.37891681    974.292342    0.00000    0.00000    0.00000    9    diag,B
   12      0.593D-06      0.975D-08     -1262.37891681    974.292339    0.00000    0.00000    0.00000    9    diag,B
   13      0.348D-07      0.166D-08     -1262.37891681    974.292339    0.00000    0.00000    0.00000    0    orth

 Final alpha occupancy:   6   2   2   1   2   1   1   0
 Final beta  occupancy:   5   2   2   0   2   0   0   0

 !RHF STATE 1.1 Energy              -1262.378916807854
 Nuclear energy                         0.00000000
 One-electron energy                -1749.52508608
 Two-electron energy                  487.14616927
 Virial quotient                       -1.00005582
 !RHF STATE 1.1 Dipole moment           0.00000000     0.00000000     0.00000000
 Dipole moment /Debye                   0.00000000     0.00000000     0.00000000

 ELECTRON ORBITALS
 =================


   Orb  Occ    Energy  Couls-En    Coefficients

                                   1 1s      1 1s      1 1s      1 1s      1 1s      1 1s      1 1s      1 3d0     1 3d2+    1 3d0  
                                   1 3d2+    1 3d0     1 3d2+    1 3d0     1 3d2+ 

   1.1   2  -261.1766 -599.0309  0.983543 -0.180673 -0.000399 -0.000005 -0.000000  0.000010 -0.000006 -0.000000  0.000000 -0.000000
                                 0.000000  0.000000 -0.000000 -0.000000  0.000000

   2.1   2   -31.7154 -114.4084  0.180672  0.983529  0.004934 -0.000043  0.000043  0.000031  0.000033  0.000000  0.000000  0.000000
                                 0.000000 -0.000000 -0.000000  0.000000  0.000000

   3.1   2    -3.9567  -35.7058 -0.000710 -0.005553  0.996851 -0.012989  0.007277  0.017214 -0.003458  0.000000  0.000000  0.000000
                                -0.000000 -0.000000  0.000000  0.000000 -0.000000

   4.1   2    -0.3679  -23.7354 -0.000000 -0.000000 -0.000000 -0.000000  0.000000  0.000000 -0.000000  0.012318  0.989361  0.000436
                                 0.035031  0.000412  0.033109 -0.000055 -0.004430

   5.1   2    -0.3679  -23.7354  0.000000  0.000000  0.000000  0.000000 -0.000000 -0.000000  0.000000  0.989361 -0.012318  0.035031
                                -0.000436  0.033109 -0.000412 -0.004430  0.000055

   6.1   +    -0.2299   -8.9964 -0.001252 -0.003719 -0.018579  0.913598 -0.027836  0.089745  0.003992  0.000000  0.000000  0.000000
                                -0.000000  0.000000  0.000000 -0.000000 -0.000000

   7.1   0     0.0335   -2.9663  0.010241  0.030315  0.146223  0.182084 -0.025469 -1.968680  2.223426 -0.000000 -0.000000 -0.000000
                                -0.000000 -0.000000  0.000000  0.000000 -0.000000

   8.1   0     0.1026   -3.6130 -0.000000 -0.000000 -0.000000 -0.000000  0.000000  0.000000 -0.000000 -0.058238 -0.032885  0.017572
                                 0.009922 -0.143729 -0.081157  0.944362  0.533238

                                   1 2px     1 2px     1 2px     1 2px     1 2px     1 2px     1 4f1+    1 4f3+    1 4f1+    1 4f3+ 


   1.2   2   -27.1979 -109.2198  0.999970  0.007562 -0.000711  0.000550  0.000259 -0.000011 -0.000282  0.000364  0.000080 -0.000103

   2.2   2    -2.5450  -32.3568 -0.007693  0.998667 -0.067130  0.053579  0.024094 -0.001314 -0.004420  0.005706 -0.000290  0.000374

   3.2   0     0.0206   -3.6557  0.000340 -0.009487  0.704507 -0.339712 -0.293663  0.968947 -0.000108  0.000140  0.000376 -0.000485

   4.2   0     0.0763   -4.7550  0.005523  0.108457  0.726107 -0.541881 -1.747565  1.202443  0.000172 -0.000222 -0.000720  0.000929

                                   1 2py     1 2py     1 2py     1 2py     1 2py     1 2py     1 4f1-    1 4f3-    1 4f1-    1 4f3- 


   1.3   2   -27.1979 -109.2198  0.999970  0.007562 -0.000711  0.000550  0.000259 -0.000011 -0.000282 -0.000364  0.000080  0.000103

   2.3   2    -2.5450  -32.3568 -0.007693  0.998667 -0.067130  0.053579  0.024094 -0.001314 -0.004420 -0.005706 -0.000290 -0.000374

   3.3   0     0.0206   -3.6557  0.000340 -0.009487  0.704507 -0.339712 -0.293663  0.968947 -0.000108 -0.000140  0.000376  0.000485

   4.3   0     0.0763   -4.7550  0.005523  0.108457  0.726107 -0.541881 -1.747565  1.202443  0.000172  0.000222 -0.000720 -0.000929

                                   1 3d2-    1 3d2-    1 3d2-    1 3d2- 

   1.4   +    -0.4587  -24.3568  0.997375  0.015139  0.010085 -0.003925

   2.4   0     0.1022   -3.5890 -0.053009  0.021747 -0.159558  1.081659

   3.4   0     0.3814   -6.7961 -0.352397 -0.076050  1.353090 -0.636105

                                   1 2pz     1 2pz     1 2pz     1 2pz     1 2pz     1 2pz     1 4f0     1 4f2+    1 4f0     1 4f2+ 


   1.5   2   -27.1979 -109.2198  0.999970  0.007562 -0.000711  0.000550  0.000259 -0.000011  0.000460 -0.000000 -0.000130  0.000000

   2.5   2    -2.5450  -32.3568 -0.007693  0.998667 -0.067130  0.053579  0.024094 -0.001314  0.007218 -0.000000  0.000474  0.000000

   3.5   0     0.0206   -3.6557  0.000340 -0.009487  0.704507 -0.339712 -0.293663  0.968947  0.000177  0.000000 -0.000613 -0.000000

   4.5   0     0.0763   -4.7550  0.005523  0.108457  0.726107 -0.541881 -1.747565  1.202443 -0.000281  0.000000  0.001176 -0.000000

                                   1 3d1+    1 3d1+    1 3d1+    1 3d1+ 

   1.6   +    -0.4587  -24.3568  0.997375  0.015139  0.010085 -0.003925

   2.6   0     0.1022   -3.5890 -0.053009  0.021747 -0.159558  1.081659

   3.6   0     0.3814   -6.7961 -0.352397 -0.076050  1.353090 -0.636105

                                   1 3d1-    1 3d1-    1 3d1-    1 3d1- 

   1.7   +    -0.4587  -24.3568  0.997375  0.015139  0.010085 -0.003925

   2.7   0     0.1022   -3.5890 -0.053009  0.021747 -0.159558  1.081659

   3.7   0     0.3814   -6.7961 -0.352397 -0.076050  1.353090 -0.636105

                                   1 4f2-    1 4f2- 

   1.8   0     1.0260   -7.6364 -0.013119  1.005939

   2.8   0     3.9761  -12.1634  1.124756 -0.503323

 HOMO      6.1    -0.229910 =      -6.2562eV
 LUMO      3.2     0.020608 =       0.5608eV
 LUMO-HOMO         0.250518 =       6.8169eV


 **********************************************************************************************************************************
 DATASETS  * FILE   NREC   LENGTH (MB)   RECORD NAMES
              1      19        9.10       500      610      700      900      950      970     1000      129      960     1100   
                                          VAR    BASINP    GEOM    SYMINP    ZMAT    AOBASIS   BASIS     P2S    ABASIS      S 
                                         1400     1410     1200     1210     1080     1600     1650     1300     1700   
                                           T        V       H0       H01     AOSYM     SMH    MOLCAS    ERIS     OPER   

              2       4        0.31       700     1000      520     2100   
                                         GEOM     BASIS   MCVARS     RHF  

 PROGRAMS   *        TOTAL       RHF       INT
 CPU TIMES  *         2.33      0.05      2.09
 REAL TIME  *         2.82 SEC
 DISK USED  *        15.27 MB      
 **********************************************************************************************************************************


1PROGRAM * CISD (Restricted open-shell CI(SD))     Authors: C. Hampel, H.-J. Werner, 1991, M. Deegan, P.J. Knowles, 1992


 Convergence thresholds:  THRVAR = 1.00D-08  THRDEN = 1.00D-16

 Number of core orbitals:           9 (   3   2   2   0   2   0   0   0 )
 Number of closed-shell orbitals:   2 (   2   0   0   0   0   0   0   0 )
 Number of active  orbitals:        4 (   1   0   0   1   0   1   1   0 )
 Number of external orbitals:      44 (   9   8   8   3   8   3   3   2 )

 Number of N-1 electron functions:               8
 Number of N-2 electron functions:              28
 Number of singly external CSFs:                62
 Number of doubly external CSFs:              6772
 Total number of CSFs:                        6834

 Molecular orbitals read from record     2100.2  Type=RHF/CANONICAL (state 1.1)

 Integral transformation finished. Total CPU:   0.00 sec, npass=  1  Memory used:   0.08 MW

 Starting RMP2 calculation

 Wavefunction is spin-projected

 ITER.      SQ.NORM     CORR.ENERGY   TOTAL ENERGY   ENERGY CHANGE        DEN1      VAR(S)    VAR(P)  DIIS     TIME
   1      1.05575641    -0.20020667 -1262.57912347    -0.20020667    -0.00058199  0.23D-06  0.26D-03  1  1     0.01
   2      1.05636650    -0.20082729 -1262.57974410    -0.00062062    -0.00000145  0.56D-08  0.97D-06  2  2     0.01
   3      1.05639638    -0.20084277 -1262.57975958    -0.00001548    -0.00000001  0.23D-09  0.44D-08  3  3     0.01
   4      1.05639693    -0.20084285 -1262.57975966    -0.00000008    -0.00000000  0.31D-11  0.35D-10  4  4     0.01
   5      1.05639692    -0.20084285 -1262.57975966     0.00000000    -0.00000000  0.13D-12  0.30D-12  5  5     0.01
   6      1.05639692    -0.20084285 -1262.57975966     0.00000000    -0.00000000  0.37D-15  0.39D-14  6  6     0.01
   7      1.05639692    -0.20084285 -1262.57975966     0.00000000    -0.00000000  0.16D-16  0.43D-16  6  1     0.01
   8      1.05639692    -0.20084285 -1262.57975966     0.00000000    -0.00000000  0.31D-19  0.33D-18  6  2     0.01
   9      1.05639692    -0.20084285 -1262.57975966    -0.00000000    -0.00000000  0.15D-21  0.16D-20  6  3     0.02
  10      1.05639692    -0.20084285 -1262.57975966    -0.00000000    -0.00000000  0.11D-23  0.18D-22  6  4     0.02
  11      1.05639692    -0.20084285 -1262.57975966     0.00000000    -0.00000000  0.23D-25  0.13D-24  6  5     0.02

 Norm of t1 vector:      0.01202168      S-energy:    -0.00022084      T1 diagnostic:  0.00010441
 Norm of t2 vector:      0.23717588      P-energy:    -0.20062201
                                         Alpha-Beta:  -0.10893073
                                         Alpha-Alpha: -0.08559418
                                         Beta-Beta:   -0.00609709

 Spin contamination <S**2-Sz**2-Sz>     0.00000000
  Reference energy                  -1262.378916807855
  RHF-RMP2 correlation energy          -0.200842847965
 !RHF-RMP2 energy                   -1262.579759655820
 (NB above energy spin projected)

 Starting RCISD calculation

 ITER.      SQ.NORM     CORR.ENERGY   TOTAL ENERGY   ENERGY CHANGE        DEN1      VAR(S)    VAR(P)  DIIS     TIME
   1      1.04878639    -0.18161491 -1262.56053172    -0.18161491    -0.00742992  0.45D-02  0.14D-02  1  1     0.03
   2      1.05335013    -0.18738482 -1262.56630162    -0.00576990    -0.00095136  0.41D-03  0.33D-03  2  2     0.05
   3      1.05735189    -0.18861066 -1262.56752747    -0.00122584    -0.00020352  0.17D-03  0.39D-04  3  3     0.06
   4      1.05987657    -0.18904015 -1262.56795696    -0.00042949    -0.00004352  0.33D-04  0.90D-05  4  4     0.08
   5      1.06076622    -0.18917730 -1262.56809411    -0.00013715    -0.00000876  0.78D-05  0.15D-05  5  5     0.09
   6      1.06095636    -0.18920706 -1262.56812387    -0.00002976    -0.00000118  0.95D-06  0.28D-06  6  6     0.11
   7      1.06096849    -0.18921205 -1262.56812885    -0.00000498    -0.00000017  0.14D-06  0.45D-07  6  1     0.12
   8      1.06096223    -0.18921271 -1262.56812952    -0.00000066    -0.00000002  0.19D-07  0.62D-08  6  2     0.13
   9      1.06096479    -0.18921281 -1262.56812961    -0.00000010    -0.00000001  0.39D-08  0.18D-08  6  4     0.15
  10      1.06096865    -0.18921282 -1262.56812963    -0.00000001    -0.00000000  0.36D-09  0.23D-09  6  3     0.16
  11      1.06097044    -0.18921282 -1262.56812963    -0.00000000    -0.00000000  0.46D-10  0.32D-10  6  5     0.18
  12      1.06097079    -0.18921282 -1262.56812963    -0.00000000    -0.00000000  0.67D-11  0.85D-11  6  6     0.19
  13      1.06097071    -0.18921282 -1262.56812963    -0.00000000    -0.00000000  0.20D-11  0.15D-11  6  1     0.21
  14      1.06097059    -0.18921282 -1262.56812963    -0.00000000    -0.00000000  0.73D-12  0.30D-12  6  3     0.22
  15      1.06097042    -0.18921282 -1262.56812963    -0.00000000    -0.00000000  0.16D-12  0.58D-13  6  2     0.23
  16      1.06097036    -0.18921282 -1262.56812963    -0.00000000    -0.00000000  0.31D-13  0.12D-13  6  4     0.25
  17      1.06097035    -0.18921282 -1262.56812963     0.00000000    -0.00000000  0.56D-14  0.38D-14  6  1     0.26

 Norm of t1 vector:      0.08402298      S-energy:    -0.00065002      T1 diagnostic:  0.01865316
 Norm of t2 vector:      0.23218631      P-energy:    -0.18856281
                                         Alpha-Beta:  -0.10606256
                                         Alpha-Alpha: -0.07750808
                                         Beta-Beta:   -0.00499217

 Spin contamination <S**2-Sz**2-Sz>     0.00000000
 

 ?Inconsistent energies:

 ecorr    -0.1892128241  -0.1892128224   -0.17D-08
 estrong  -0.1885628087  -0.1885628087    0.00D+00
 eclose    0.0000000000   0.0000000000    0.00D+00
 eweak     0.0000000000   0.0000000000    0.00D+00
 edist     0.0000000000   0.0000000000    0.00D+00

 RESULTS
 =======

  Reference energy                  -1262.378916807855
  RCISD singles energy                 -0.000650013679
  RCISD pair energy                    -0.188562808681
  RCISD correlation energy             -0.189212822359
 
 !RHF-RCISD energy                  -1262.568129630214

 Program statistics:

 Available memory in ccsd:              2432999552
 Min. memory needed in ccsd:                 36186
 Max. memory used in ccsd:                   42574
 Max. memory used in cckext:                 74477 (17 integral passes)
 Max. memory used in cckint:                 77701 ( 1 integral passes)



 **********************************************************************************************************************************
 DATASETS  * FILE   NREC   LENGTH (MB)   RECORD NAMES
              1      19        9.10       500      610      700      900      950      970     1000      129      960     1100   
                                          VAR    BASINP    GEOM    SYMINP    ZMAT    AOBASIS   BASIS     P2S    ABASIS      S 
                                         1400     1410     1200     1210     1080     1600     1650     1300     1700   
                                           T        V       H0       H01     AOSYM     SMH    MOLCAS    ERIS     OPER   

              2       4        0.31       700     1000      520     2100   
                                         GEOM     BASIS   MCVARS     RHF  

 PROGRAMS   *        TOTAL     RCISD       RHF       INT
 CPU TIMES  *         2.64      0.31      0.05      2.09
 REAL TIME  *         3.32 SEC
 DISK USED  *        15.27 MB      
 **********************************************************************************************************************************


1PROGRAM * CCSD (Restricted open-shell coupled cluster)     Authors: C. Hampel, H.-J. Werner, 1991, M. Deegan, P.J. Knowles, 1992


 Convergence thresholds:  THRVAR = 1.00D-08  THRDEN = 1.00D-16

 CCSD(T)     terms to be evaluated (factor= 1.000)


 Number of core orbitals:           9 (   3   2   2   0   2   0   0   0 )
 Number of closed-shell orbitals:   2 (   2   0   0   0   0   0   0   0 )
 Number of active  orbitals:        4 (   1   0   0   1   0   1   1   0 )
 Number of external orbitals:      44 (   9   8   8   3   8   3   3   2 )

 Memory could be reduced to 0.50 Mwords without degradation in triples

 Number of N-1 electron functions:               8
 Number of N-2 electron functions:              28
 Number of singly external CSFs:                62
 Number of doubly external CSFs:              6772
 Total number of CSFs:                        6834

 Molecular orbitals read from record     2100.2  Type=RHF/CANONICAL (state 1.1)

 Integral transformation finished. Total CPU:   0.01 sec, npass=  1  Memory used:   0.13 MW

 Starting RMP2 calculation

 Wavefunction is spin-projected

 ITER.      SQ.NORM     CORR.ENERGY   TOTAL ENERGY   ENERGY CHANGE        DEN1      VAR(S)    VAR(P)  DIIS     TIME
   1      1.05575641    -0.20020667 -1262.57912347    -0.20020667    -0.00058199  0.23D-06  0.26D-03  1  1     0.01
   2      1.05636650    -0.20082729 -1262.57974410    -0.00062062    -0.00000145  0.56D-08  0.97D-06  2  2     0.01
   3      1.05639638    -0.20084277 -1262.57975958    -0.00001548    -0.00000001  0.23D-09  0.44D-08  3  3     0.02
   4      1.05639693    -0.20084285 -1262.57975966    -0.00000008    -0.00000000  0.31D-11  0.35D-10  4  4     0.02
   5      1.05639692    -0.20084285 -1262.57975966     0.00000000    -0.00000000  0.13D-12  0.30D-12  5  5     0.02
   6      1.05639692    -0.20084285 -1262.57975966     0.00000000    -0.00000000  0.37D-15  0.39D-14  6  6     0.02
   7      1.05639692    -0.20084285 -1262.57975966     0.00000000    -0.00000000  0.16D-16  0.43D-16  6  1     0.02
   8      1.05639692    -0.20084285 -1262.57975966     0.00000000    -0.00000000  0.31D-19  0.33D-18  6  2     0.02
   9      1.05639692    -0.20084285 -1262.57975966    -0.00000000    -0.00000000  0.15D-21  0.16D-20  6  3     0.02
  10      1.05639692    -0.20084285 -1262.57975966    -0.00000000    -0.00000000  0.11D-23  0.18D-22  6  4     0.02
  11      1.05639692    -0.20084285 -1262.57975966     0.00000000    -0.00000000  0.23D-25  0.13D-24  6  5     0.02

 Norm of t1 vector:      0.01202168      S-energy:    -0.00022084      T1 diagnostic:  0.00010441
 Norm of t2 vector:      0.23717588      P-energy:    -0.20062201
                                         Alpha-Beta:  -0.10893073
                                         Alpha-Alpha: -0.08559418
                                         Beta-Beta:   -0.00609709

 Spin contamination <S**2-Sz**2-Sz>     0.00000000
  Reference energy                  -1262.378916807855
  RHF-RMP2 correlation energy          -0.200842847965
 !RHF-RMP2 energy                   -1262.579759655820
 (NB above energy spin projected)

 Starting RCCSD calculation

 ITER.      SQ.NORM     CORR.ENERGY   TOTAL ENERGY   ENERGY CHANGE        DEN1      VAR(S)    VAR(P)  DIIS     TIME
   1      1.05430781    -0.18944544 -1262.56836225    -0.18944544    -0.00633455  0.44D-02  0.11D-02  1  1     0.06
   2      1.06165038    -0.19403304 -1262.57294985    -0.00458760    -0.00107853  0.49D-03  0.41D-03  2  2     0.09
   3      1.07091509    -0.19603947 -1262.57495627    -0.00200642    -0.00018473  0.17D-03  0.40D-04  3  3     0.12
   4      1.07592988    -0.19703157 -1262.57594838    -0.00099211    -0.00002209  0.13D-04  0.91D-05  4  4     0.15
   5      1.07768535    -0.19724288 -1262.57615969    -0.00021131    -0.00000343  0.38D-05  0.67D-06  5  5     0.18
   6      1.07813171    -0.19728551 -1262.57620232    -0.00004263    -0.00000056  0.44D-06  0.16D-06  6  6     0.21
   7      1.07828792    -0.19730126 -1262.57621807    -0.00001575    -0.00000008  0.67D-07  0.21D-07  6  1     0.24
   8      1.07830676    -0.19729847 -1262.57621528     0.00000279    -0.00000001  0.93D-08  0.38D-08  6  3     0.27
   9      1.07832104    -0.19730069 -1262.57621750    -0.00000222    -0.00000000  0.11D-08  0.10D-08  6  2     0.30
  10      1.07832005    -0.19730038 -1262.57621718     0.00000032    -0.00000000  0.13D-09  0.16D-09  6  4     0.33
  11      1.07832035    -0.19730017 -1262.57621698     0.00000021    -0.00000000  0.30D-10  0.45D-10  6  5     0.36
  12      1.07831923    -0.19730011 -1262.57621692     0.00000006    -0.00000000  0.74D-11  0.75D-11  6  1     0.39
  13      1.07831859    -0.19729998 -1262.57621679     0.00000013    -0.00000000  0.44D-12  0.19D-11  6  6     0.42
  14      1.07831831    -0.19729995 -1262.57621676     0.00000003    -0.00000000  0.39D-12  0.31D-12  6  3     0.45
  15      1.07831828    -0.19729996 -1262.57621677    -0.00000001    -0.00000000  0.77D-13  0.11D-12  6  2     0.48
  16      1.07831828    -0.19729996 -1262.57621677    -0.00000000    -0.00000000  0.28D-13  0.14D-13  6  4     0.51
  17      1.07831830    -0.19729997 -1262.57621677    -0.00000001    -0.00000000  0.19D-14  0.23D-14  6  5     0.54
  18      1.07831830    -0.19729996 -1262.57621677     0.00000000    -0.00000000  0.33D-15  0.40D-15  6  1     0.57
  19      1.07831830    -0.19729997 -1262.57621677    -0.00000000    -0.00000000  0.52D-16  0.85D-16  6  6     0.61
  20      1.07831830    -0.19729997 -1262.57621677    -0.00000000    -0.00000000  0.11D-16  0.26D-16  6  4     0.64
  21      1.07831830    -0.19729997 -1262.57621677     0.00000000    -0.00000000  0.31D-17  0.33D-17  6  3     0.67
  22      1.07831830    -0.19729997 -1262.57621677    -0.00000000    -0.00000000  0.16D-18  0.32D-18  6  2     0.70
  23      1.07831830    -0.19729997 -1262.57621677     0.00000000    -0.00000000  0.25D-19  0.52D-19  6  5     0.73
  24      1.07831830    -0.19729997 -1262.57621677     0.00000000    -0.00000000  0.45D-20  0.10D-19  6  1     0.76
  25      1.07831830    -0.19729997 -1262.57621677     0.00000000    -0.00000000  0.27D-20  0.17D-20  6  6     0.79
  26      1.07831830    -0.19729997 -1262.57621677     0.00000000    -0.00000000  0.21D-21  0.38D-21  6  3     0.82
  27      1.07831830    -0.19729997 -1262.57621677     0.00000000    -0.00000000  0.30D-22  0.88D-22  6  4     0.85
  28      1.07831830    -0.19729997 -1262.57621677     0.00000000    -0.00000000  0.84D-23  0.26D-22  6  2     0.88

 Norm of t1 vector:      0.12417729      S-energy:    -0.00080425      T1 diagnostic:  0.02841983
                                                                       D1 diagnostic:  0.04298039
 Norm of t2 vector:      0.25079533      P-energy:    -0.19649572
                                         Alpha-Beta:  -0.11075665
                                         Alpha-Alpha: -0.08072338
                                         Beta-Beta:   -0.00501569

 Singles amplitudes (print threshold =  0.500E-01):

         I         SYM. A    A   T(IA) [Beta-Beta]

         1         1         6      0.05641925
         2         1         7      0.05641925

 Spin contamination <S**2-Sz**2-Sz>     0.00000000

 Memory could be reduced to 0.56 Mwords without degradation in triples
 

 RESULTS
 =======

  Reference energy                  -1262.378916807855
  RCCSD singles energy                 -0.000804249004
  RCCSD pair energy                    -0.196495716333
  RCCSD correlation energy             -0.197299965337
  Triples (T) contribution             -0.007767809338
  Total correlation energy             -0.205067774675
 
  RHF-RCCSD energy                  -1262.576216773191
  RHF-RCCSD[T] energy               -1262.585825570042
  RHF-RCCSD-T energy                -1262.583381356668
 !RHF-RCCSD(T) energy               -1262.583984582530

 Program statistics:

 Available memory in ccsd:              2432999552
 Min. memory needed in ccsd:                 36186
 Max. memory used in ccsd:                   42574
 Max. memory used in cckext:                 74477 (28 integral passes)
 Max. memory used in cckint:                129965 ( 1 integral passes)



 **********************************************************************************************************************************
 DATASETS  * FILE   NREC   LENGTH (MB)   RECORD NAMES
              1      19        9.10       500      610      700      900      950      970     1000      129      960     1100   
                                          VAR    BASINP    GEOM    SYMINP    ZMAT    AOBASIS   BASIS     P2S    ABASIS      S 
                                         1400     1410     1200     1210     1080     1600     1650     1300     1700   
                                           T        V       H0       H01     AOSYM     SMH    MOLCAS    ERIS     OPER   

              2       4        0.31       700     1000      520     2100   
                                         GEOM     BASIS   MCVARS     RHF  

 PROGRAMS   *        TOTAL  RCCSD(T)     RCISD       RHF       INT
 CPU TIMES  *         3.64      1.00      0.31      0.05      2.09
 REAL TIME  *         4.93 SEC
 DISK USED  *        15.27 MB      
 **********************************************************************************************************************************


1PROGRAM * CCSD (Unrestricted open-shell coupled cluster)     Authors: C. Hampel, H.-J. Werner, 1991, M. Deegan, P.J. Knowles, 1992


 Convergence thresholds:  THRVAR = 1.00D-08  THRDEN = 1.00D-16

 CCSD(T)     terms to be evaluated (factor= 1.000)


 Number of core orbitals:           9 (   3   2   2   0   2   0   0   0 )
 Number of closed-shell orbitals:   2 (   2   0   0   0   0   0   0   0 )
 Number of active  orbitals:        4 (   1   0   0   1   0   1   1   0 )
 Number of external orbitals:      44 (   9   8   8   3   8   3   3   2 )

 Memory could be reduced to 0.50 Mwords without degradation in triples

 Number of N-1 electron functions:               8
 Number of N-2 electron functions:              28
 Number of singly external CSFs:                62
 Number of doubly external CSFs:              6772
 Total number of CSFs:                        6834

 Molecular orbitals read from record     2100.2  Type=RHF/CANONICAL (state 1.1)

 Integral transformation finished. Total CPU:   0.01 sec, npass=  1  Memory used:   0.13 MW

 Starting RMP2 calculation

 ITER.      SQ.NORM     CORR.ENERGY   TOTAL ENERGY   ENERGY CHANGE        DEN1      VAR(S)    VAR(P)  DIIS     TIME
   1      1.05592713    -0.20027662 -1262.57919343    -0.20027662    -0.00059202  0.60D-05  0.26D-03  1  1     0.02
   2      1.05656146    -0.20090857 -1262.57982538    -0.00063195    -0.00000163  0.10D-06  0.10D-05  2  2     0.02
   3      1.05659486    -0.20092516 -1262.57984196    -0.00001659    -0.00000001  0.12D-08  0.55D-08  3  3     0.02
   4      1.05659565    -0.20092529 -1262.57984210    -0.00000014    -0.00000000  0.98D-11  0.42D-10  4  4     0.02
   5      1.05659564    -0.20092529 -1262.57984209     0.00000000    -0.00000000  0.79D-13  0.46D-12  5  5     0.02
   6      1.05659564    -0.20092529 -1262.57984209     0.00000000    -0.00000000  0.55D-15  0.57D-14  6  6     0.02
   7      1.05659564    -0.20092529 -1262.57984209     0.00000000    -0.00000000  0.40D-17  0.63D-16  6  1     0.02
   8      1.05659564    -0.20092529 -1262.57984209    -0.00000000    -0.00000000  0.70D-19  0.39D-18  6  2     0.03
   9      1.05659564    -0.20092529 -1262.57984209    -0.00000000    -0.00000000  0.18D-20  0.29D-20  6  3     0.03
  10      1.05659564    -0.20092529 -1262.57984209    -0.00000000    -0.00000000  0.31D-22  0.32D-22  6  4     0.03
  11      1.05659564    -0.20092529 -1262.57984209     0.00000000    -0.00000000  0.29D-24  0.43D-24  6  5     0.03

 Norm of t1 vector:      0.01849711      S-energy:    -0.00031873      T1 diagnostic:  0.00018584
 Norm of t2 vector:      0.23717820      P-energy:    -0.20060656
                                         Alpha-Beta:  -0.10913376
                                         Alpha-Alpha: -0.08533616
                                         Beta-Beta:   -0.00613665

 Spin contamination <S**2-Sz**2-Sz>     0.00675938
  Reference energy                  -1262.378916807855
  RHF-RMP2 correlation energy          -0.200925286855
 !RHF-RMP2 energy                   -1262.579842094709

 Starting UCCSD calculation

 ITER.      SQ.NORM     CORR.ENERGY   TOTAL ENERGY   ENERGY CHANGE        DEN1      VAR(S)    VAR(P)  DIIS     TIME
   1      1.05443276    -0.18944888 -1262.56836569    -0.18944888    -0.00635016  0.44D-02  0.11D-02  1  1     0.06
   2      1.06185460    -0.19410310 -1262.57301991    -0.00465422    -0.00109908  0.45D-03  0.44D-03  2  2     0.09
   3      1.07122231    -0.19602205 -1262.57493886    -0.00191895    -0.00020380  0.17D-03  0.53D-04  3  3     0.12
   4      1.07642664    -0.19710266 -1262.57601946    -0.00108061    -0.00003825  0.14D-04  0.18D-04  4  4     0.15
   5      1.07899157    -0.19741378 -1262.57633059    -0.00031113    -0.00000670  0.46D-05  0.22D-05  5  5     0.18
   6      1.07960508    -0.19746750 -1262.57638431    -0.00005372    -0.00000169  0.38D-06  0.83D-06  6  6     0.21
   7      1.07978320    -0.19749361 -1262.57641042    -0.00002611    -0.00000048  0.21D-06  0.20D-06  6  2     0.25
   8      1.07978436    -0.19748445 -1262.57640126     0.00000916    -0.00000009  0.47D-07  0.34D-07  6  1     0.28
   9      1.07978343    -0.19748722 -1262.57640403    -0.00000277    -0.00000002  0.16D-07  0.83D-08  6  3     0.31
  10      1.07974239    -0.19748078 -1262.57639759     0.00000644    -0.00000001  0.19D-08  0.29D-08  6  5     0.33
  11      1.07974395    -0.19748175 -1262.57639856    -0.00000098    -0.00000000  0.86D-09  0.59D-09  6  4     0.37
  12      1.07973731    -0.19748127 -1262.57639808     0.00000048    -0.00000000  0.21D-09  0.98D-10  6  2     0.40
  13      1.07973794    -0.19748136 -1262.57639817    -0.00000009    -0.00000000  0.26D-10  0.24D-10  6  6     0.43
  14      1.07973844    -0.19748163 -1262.57639843    -0.00000026    -0.00000000  0.41D-11  0.20D-11  6  1     0.46
  15      1.07973844    -0.19748164 -1262.57639845    -0.00000001    -0.00000000  0.54D-12  0.71D-12  6  3     0.49
  16      1.07973840    -0.19748163 -1262.57639844     0.00000001    -0.00000000  0.19D-12  0.15D-12  6  5     0.52
  17      1.07973835    -0.19748163 -1262.57639843     0.00000000    -0.00000000  0.26D-13  0.46D-13  6  2     0.55
  18      1.07973830    -0.19748162 -1262.57639843     0.00000001    -0.00000000  0.25D-14  0.61D-14  6  4     0.59
  19      1.07973828    -0.19748162 -1262.57639842     0.00000000    -0.00000000  0.38D-15  0.19D-14  6  6     0.62
  20      1.07973827    -0.19748162 -1262.57639842     0.00000000    -0.00000000  0.18D-15  0.53D-15  6  1     0.65
  21      1.07973826    -0.19748162 -1262.57639842     0.00000000    -0.00000000  0.59D-16  0.54D-16  6  3     0.68
  22      1.07973826    -0.19748162 -1262.57639842     0.00000000    -0.00000000  0.15D-16  0.75D-17  6  2     0.71
  23      1.07973826    -0.19748161 -1262.57639842     0.00000000    -0.00000000  0.36D-17  0.18D-17  6  5     0.74
  24      1.07973826    -0.19748162 -1262.57639842    -0.00000000    -0.00000000  0.15D-17  0.63D-18  6  4     0.77
  25      1.07973826    -0.19748162 -1262.57639842    -0.00000000    -0.00000000  0.22D-18  0.14D-18  6  6     0.80
  26      1.07973826    -0.19748162 -1262.57639842    -0.00000000    -0.00000000  0.24D-19  0.52D-19  6  1     0.83
  27      1.07973826    -0.19748162 -1262.57639842    -0.00000000    -0.00000000  0.56D-20  0.78D-20  6  3     0.86
  28      1.07973826    -0.19748162 -1262.57639842    -0.00000000    -0.00000000  0.11D-20  0.31D-20  6  1     0.89
  29      1.07973826    -0.19748162 -1262.57639842    -0.00000000    -0.00000000  0.64D-22  0.32D-21  6  2     0.92
  30      1.07973826    -0.19748162 -1262.57639842    -0.00000000    -0.00000000  0.54D-22  0.38D-22  6  4     0.95
  31      1.07973826    -0.19748162 -1262.57639842     0.00000000    -0.00000000  0.22D-23  0.14D-22  6  5     0.98
  32      1.07973826    -0.19748162 -1262.57639842     0.00000000    -0.00000000  0.30D-23  0.21D-23  6  6     1.01

 Norm of t1 vector:      0.12917558      S-energy:    -0.00091174      T1 diagnostic:  0.02867435
                                                                       D1 diagnostic:  0.04349714
 Norm of t2 vector:      0.25110144      P-energy:    -0.19656987
                                         Alpha-Beta:  -0.11086790
                                         Alpha-Alpha: -0.08070985
                                         Beta-Beta:   -0.00499213

 Singles amplitudes (print threshold =  0.500E-01):

         I         SYM. A    A   T(IA) [Beta-Beta]

         1         1         6      0.05978805
         2         1         7      0.05978805

 Spin contamination <S**2-Sz**2-Sz>     0.00831800

 Memory could be reduced to 0.56 Mwords without degradation in triples
 

 RESULTS
 =======

  Reference energy                  -1262.378916807855
  UCCSD singles energy                 -0.000911742234
  UCCSD pair energy                    -0.196569872810
  UCCSD correlation energy             -0.197481615044
  Triples (T) contribution             -0.007784683095
  Total correlation energy             -0.205266298139
 
  RHF-UCCSD energy                  -1262.576398422899
  RHF-UCCSD[T] energy               -1262.586079526812
  RHF-UCCSD-T energy                -1262.583580042101
 !RHF-UCCSD(T) energy               -1262.584183105994

 Program statistics:

 Available memory in ccsd:              2432999552
 Min. memory needed in ccsd:                 36186
 Max. memory used in ccsd:                   42574
 Max. memory used in cckext:                 74477 (32 integral passes)
 Max. memory used in cckint:                129965 ( 1 integral passes)



 **********************************************************************************************************************************
 DATASETS  * FILE   NREC   LENGTH (MB)   RECORD NAMES
              1      19        9.10       500      610      700      900      950      970     1000      129      960     1100   
                                          VAR    BASINP    GEOM    SYMINP    ZMAT    AOBASIS   BASIS     P2S    ABASIS      S 
                                         1400     1410     1200     1210     1080     1600     1650     1300     1700   
                                           T        V       H0       H01     AOSYM     SMH    MOLCAS    ERIS     OPER   

              2       4        0.31       700     1000      520     2100   
                                         GEOM     BASIS   MCVARS     RHF  

 PROGRAMS   *        TOTAL  UCCSD(T)  RCCSD(T)     RCISD       RHF       INT
 CPU TIMES  *         4.77      1.10      1.00      0.31      0.05      2.09
 REAL TIME  *         7.39 SEC
 DISK USED  *        15.27 MB      
 **********************************************************************************************************************************

1PROGRAM * UHF-SCF       Authors: W. Meyer, H.-J. Werner


 NUMBER OF ELECTRONS:      15+   11-    SPACE SYMMETRY=1    SPIN SYMMETRY: Quintet 
 CONVERGENCE THRESHOLDS:    1.00E-06 (Density)    1.00E-17 (Energy)
 MAX. NUMBER OF ITERATIONS:       60
 INTERPOLATION TYPE:            DIIS
 INTERPOLATION STEPS:              2 (START)      1 (STEP)
 LEVEL SHIFTS:                  0.20 (ALPHA)   0.20 (BETA) 



 Molecular orbitals read from record     2100.2  Type=RHF/CANONICAL (state 1.1)

 Molecular orbital dump at record        2200.2

 Initial alpha occupation   6   2   2   1   2   1   1   0
 Initial beta  occupation   5   2   2   0   2   0   0   0

 ITERATION    DDIFF          GRAD             ENERGY        2-EL.EN.            DIPOLE MOMENTS         DIIS
    1      0.000D+00      0.000D+00     -1262.37891681    974.292339    0.00000    0.00000    0.00000    0
    2      0.306D-03      0.655D-02     -1262.38359280    974.251740    0.00000    0.00000    0.00000    1
    3      0.202D-03      0.135D-02     -1262.38395181    974.316550    0.00000    0.00000    0.00000    2
    4      0.458D-03      0.365D-03     -1262.38404116    974.246741    0.00000    0.00000    0.00000    3
    5      0.358D-03      0.230D-03     -1262.38408957    974.338901    0.00000    0.00000    0.00000    4
    6      0.316D-03      0.147D-03     -1262.38410194    974.268669    0.00000    0.00000    0.00000    5
    7      0.673D-04      0.147D-04     -1262.38410218    974.271548    0.00000    0.00000    0.00000    6
    8      0.206D-04      0.389D-05     -1262.38410221    974.269710    0.00000    0.00000    0.00000    6
    9      0.924D-05      0.166D-05     -1262.38410221    974.269385    0.00000    0.00000    0.00000    6
   10      0.338D-05      0.481D-06     -1262.38410221    974.269252    0.00000    0.00000    0.00000    6
   11      0.949D-06      0.135D-06     -1262.38410221    974.269229    0.00000    0.00000    0.00000    5
   12      0.942D-06      0.724D-07     -1262.38410221    974.269202    0.00000    0.00000    0.00000    6
   13      0.179D-06      0.168D-07     -1262.38410221    974.269200    0.00000    0.00000    0.00000    6
   14      0.469D-07      0.548D-08     -1262.38410221    974.269197    0.00000    0.00000    0.00000    6
 
 Final alpha occupancy:   6   2   2   1   2   1   1   0
 Final beta  occupancy:   5   2   2   0   2   0   0   0

 !UHF STATE 1.1 Energy              -1262.384102212004
 Nuclear energy                         0.00000000
 One-electron energy                -1749.51870069
 Two-electron energy                  487.13459848
 Virial quotient                       -1.00005185
 !UHF STATE 1.1 Dipole moment           0.00000000     0.00000000     0.00000000
 Dipole moment /Debye                   0.00000000     0.00000000     0.00000000

 ELECTRON ORBITALS FOR POSITIVE SPIN
 ===================================


   Orb  Occ    Energy  Couls-En    Coefficients

                                   1 1s      1 1s      1 1s      1 1s      1 1s      1 1s      1 1s      1 3d0     1 3d2+    1 3d0  
                                   1 3d2+    1 3d0     1 3d2+    1 3d0     1 3d2+ 

   1.1   +  -261.1780 -599.0322  0.983544 -0.180665 -0.000398 -0.000003 -0.000001  0.000008 -0.000006 -0.000000 -0.000000 -0.000000
                                 0.000000  0.000000 -0.000000 -0.000000  0.000000

   2.1   +   -31.7582 -114.4375  0.180687  0.983594  0.006473  0.001191 -0.000672 -0.001907  0.000381  0.000000  0.000000  0.000000
                                 0.000000 -0.000000 -0.000000  0.000000  0.000000

   3.1   +    -4.0842  -35.8644 -0.000847 -0.006484  0.998022 -0.009351  0.004507  0.010927 -0.002465  0.000000  0.000000  0.000000
                                -0.000000 -0.000000  0.000000  0.000000 -0.000000

   4.1   +    -0.4172  -24.0507 -0.000000 -0.000000 -0.000000 -0.000000  0.000000  0.000000 -0.000000 -0.689547  0.714609 -0.016972
                                 0.017589 -0.016353  0.016947  0.003317 -0.003438

   5.1   +    -0.4172  -24.0507  0.000000  0.000000  0.000000  0.000000 -0.000000 -0.000000  0.000000  0.714609  0.689547  0.017589
                                 0.016972  0.016947  0.016353 -0.003438 -0.003317

   6.1   +    -0.2291   -8.9803 -0.001275 -0.003690 -0.018377  0.909125 -0.027791  0.094370  0.004268 -0.000000 -0.000000 -0.000000
                                -0.000000  0.000000  0.000000 -0.000000 -0.000000

   7.1   0     0.0335   -2.9677  0.010268  0.030378  0.146509  0.182824 -0.025499 -1.971674  2.224434 -0.000000  0.000000  0.000000
                                -0.000000 -0.000000  0.000000 -0.000000 -0.000000

   8.1   0     0.1026   -3.5959 -0.000000 -0.000000 -0.000000 -0.000000  0.000000  0.000000 -0.000000 -0.059549  0.002178  0.020771
                                -0.000760 -0.164319  0.006010  1.083456 -0.039630

                                   1 2px     1 2px     1 2px     1 2px     1 2px     1 2px     1 4f1+    1 4f3+    1 4f1+    1 4f3+ 


   1.2   +   -27.2392 -109.2411  0.999967  0.009399  0.005977 -0.004510 -0.002201  0.000095  0.000080 -0.000103 -0.000035  0.000045

   2.2   +    -2.6972  -32.5510 -0.009332  0.999385 -0.030077  0.026013  0.010749 -0.000816  0.002732 -0.003527 -0.000742  0.000958

   3.2   0     0.0207   -3.6443  0.000391 -0.009466  0.701034 -0.338575 -0.295192  0.971777 -0.000109  0.000141  0.000520 -0.000671

   4.2   0     0.0766   -4.7567  0.005458  0.108894  0.735829 -0.546738 -1.753883  1.200879  0.000175 -0.000226 -0.000975  0.001258

                                   1 2py     1 2py     1 2py     1 2py     1 2py     1 2py     1 4f1-    1 4f3-    1 4f1-    1 4f3- 


   1.3   +   -27.2392 -109.2411  0.999967  0.009399  0.005977 -0.004510 -0.002201  0.000095  0.000080  0.000103 -0.000035 -0.000045

   2.3   +    -2.6972  -32.5510 -0.009332  0.999385 -0.030077  0.026013  0.010749 -0.000816  0.002732  0.003527 -0.000742 -0.000958

   3.3   0     0.0207   -3.6443  0.000391 -0.009466  0.701034 -0.338575 -0.295192  0.971777 -0.000109 -0.000141  0.000520  0.000671

   4.3   0     0.0766   -4.7567  0.005458  0.108894  0.735829 -0.546738 -1.753883  1.200879  0.000175  0.000226 -0.000975 -0.001258

                                   1 3d2-    1 3d2-    1 3d2-    1 3d2- 

   1.4   +    -0.4640  -24.4060  0.997833  0.013173  0.008582 -0.003751

   2.4   0     0.1021   -3.5877 -0.052067  0.021880 -0.159192  1.081453

   3.4   0     0.3810   -6.7790 -0.349645 -0.075343  1.352593 -0.636388

                                   1 2pz     1 2pz     1 2pz     1 2pz     1 2pz     1 2pz     1 4f0     1 4f2+    1 4f0     1 4f2+ 


   1.5   +   -27.2392 -109.2411  0.999967  0.009399  0.005977 -0.004510 -0.002201  0.000095 -0.000130 -0.000000  0.000057  0.000000

   2.5   +    -2.6972  -32.5510 -0.009332  0.999385 -0.030077  0.026013  0.010749 -0.000816 -0.004462 -0.000000  0.001211  0.000000

   3.5   0     0.0207   -3.6443  0.000391 -0.009466  0.701034 -0.338575 -0.295192  0.971777  0.000178  0.000000 -0.000849 -0.000000

   4.5   0     0.0766   -4.7567  0.005458  0.108894  0.735829 -0.546738 -1.753883  1.200879 -0.000285 -0.000000  0.001591 -0.000000

                                   1 3d1+    1 3d1+    1 3d1+    1 3d1+ 

   1.6   +    -0.4640  -24.4060  0.997833  0.013173  0.008582 -0.003751

   2.6   0     0.1021   -3.5877 -0.052067  0.021880 -0.159192  1.081453

   3.6   0     0.3810   -6.7790 -0.349645 -0.075343  1.352593 -0.636388

                                   1 3d1-    1 3d1-    1 3d1-    1 3d1- 

   1.7   +    -0.4640  -24.4060  0.997833  0.013173  0.008582 -0.003751

   2.7   0     0.1021   -3.5877 -0.052067  0.021880 -0.159192  1.081453

   3.7   0     0.3810   -6.7790 -0.349645 -0.075343  1.352593 -0.636388

                                   1 4f2-    1 4f2- 

   1.8   0     1.0259   -7.6369 -0.013017  1.005893

   2.8   0     3.9731  -12.1661  1.124757 -0.503415

 ELECTRON ORBITALS FOR NEGATIVE SPIN
 ===================================


   Orb  Occ    Energy  Couls-En    Coefficients

                                   1 1s      1 1s      1 1s      1 1s      1 1s      1 1s      1 1s      1 3d0     1 3d2+    1 3d0  
                                   1 3d2+    1 3d0     1 3d2+    1 3d0     1 3d2+ 

   1.1   -  -261.1747 -599.0290  0.983542 -0.180681 -0.000400 -0.000005  0.000000  0.000011 -0.000006 -0.000000  0.000000 -0.000000
                                 0.000000  0.000000 -0.000000 -0.000000  0.000000

   2.1   -   -31.6720 -114.3778  0.180657  0.983463  0.003414 -0.001470  0.000759  0.001933 -0.000312  0.000000 -0.000000  0.000000
                                -0.000000 -0.000000  0.000000  0.000000 -0.000000

   3.1   -    -3.8293  -35.5493 -0.000585 -0.004661  0.995553 -0.017943  0.010386  0.024170 -0.004582  0.000000  0.000000  0.000000
                                -0.000000 -0.000000  0.000000  0.000000 -0.000000

   4.1   -    -0.3184  -23.3688 -0.000000 -0.000000 -0.000000 -0.000000  0.000000  0.000000  0.000000  0.109950  0.978205  0.005187
                                 0.046148  0.005055  0.044971 -0.000332 -0.002951

   5.1   -    -0.3184  -23.3688  0.000000  0.000000  0.000000  0.000000 -0.000000 -0.000000  0.000000  0.978205 -0.109950  0.046148
                                -0.005187  0.044971 -0.005055 -0.002951  0.000332

   6.1   0     0.0081   -4.6811 -0.001173 -0.003517 -0.021831  0.368303 -0.041723 -0.590957  1.239116 -0.000000  0.000000  0.000000
                                -0.000000 -0.000000  0.000000 -0.000000 -0.000000

   7.1   0     0.0619   -5.1878  0.021377  0.063375  0.314120  0.346642 -0.001343 -2.710406  2.083129 -0.000000 -0.000000 -0.000000
                                -0.000000  0.000000  0.000000 -0.000000 -0.000000

                                   1 2px     1 2px     1 2px     1 2px     1 2px     1 2px     1 4f1+    1 4f3+    1 4f1+    1 4f3+ 


   1.2   -   -27.1560 -109.1972  0.999969  0.005751 -0.007342  0.005567  0.002698 -0.000116 -0.000634  0.000819  0.000191 -0.000246

   2.2   -    -2.3945  -32.1576 -0.006102  0.997707 -0.109180  0.084902  0.039238 -0.001880 -0.011751  0.015170  0.000019 -0.000024

   3.2   0     0.0297   -2.8570  0.001131  0.010036  0.639743 -0.356110 -0.588642  1.218620 -0.000107  0.000138 -0.000701  0.000905

   4.2   0     0.1091   -4.7588  0.007930  0.144633  1.545589 -0.934575 -2.234744  1.020149  0.000346 -0.000446  0.002518 -0.003251

                                   1 2py     1 2py     1 2py     1 2py     1 2py     1 2py     1 4f1-    1 4f3-    1 4f1-    1 4f3- 


   1.3   -   -27.1560 -109.1972  0.999969  0.005751 -0.007342  0.005567  0.002698 -0.000116 -0.000634 -0.000819  0.000191  0.000246

   2.3   -    -2.3945  -32.1576 -0.006102  0.997707 -0.109180  0.084902  0.039238 -0.001880 -0.011751 -0.015170  0.000019  0.000024

   3.3   0     0.0297   -2.8570  0.001131  0.010036  0.639743 -0.356110 -0.588642  1.218620 -0.000107 -0.000138 -0.000701 -0.000905

   4.3   0     0.1091   -4.7588  0.007930  0.144633  1.545589 -0.934575 -2.234744  1.020149  0.000346  0.000446  0.002518  0.003251

                                   1 3d2-    1 3d2-    1 3d2-    1 3d2- 

   1.4   0     0.1046   -3.5722  0.054512  0.028787 -0.167966  1.078897

   2.4   0     0.3141  -10.3171  0.435101  0.034427  0.942092 -0.530061

                                   1 2pz     1 2pz     1 2pz     1 2pz     1 2pz     1 2pz     1 4f0     1 4f2+    1 4f0     1 4f2+ 


   1.5   -   -27.1560 -109.1972  0.999969  0.005751 -0.007342  0.005567  0.002698 -0.000116  0.001035 -0.000000 -0.000312  0.000000

   2.5   -    -2.3945  -32.1576 -0.006102  0.997707 -0.109180  0.084902  0.039238 -0.001880  0.019189 -0.000000 -0.000031  0.000000

   3.5   0     0.0297   -2.8570  0.001131  0.010036  0.639743 -0.356110 -0.588642  1.218620  0.000174  0.000000  0.001145 -0.000000

   4.5   0     0.1091   -4.7588  0.007930  0.144633  1.545589 -0.934575 -2.234744  1.020149 -0.000565  0.000000 -0.004113 -0.000000

                                   1 3d1+    1 3d1+    1 3d1+    1 3d1+ 

   1.6   0     0.1046   -3.5722  0.054512  0.028787 -0.167966  1.078897

   2.6   0     0.3141  -10.3171  0.435101  0.034427  0.942092 -0.530061

                                   1 3d1-    1 3d1-    1 3d1-    1 3d1- 

   1.7   0     0.1046   -3.5722  0.054512  0.028787 -0.167966  1.078897

   2.7   0     0.3141  -10.3171  0.435101  0.034427  0.942092 -0.530061

                                   1 4f2-    1 4f2- 

   1.8   0     1.0778   -7.5212 -0.032737  1.014566

   2.8   0     4.2261  -11.9769  1.124356 -0.485700

 HOMO      6.1    -0.229081 =      -6.2336eV
 LUMO     -6.1     0.008131 =       0.2213eV
 LUMO-HOMO         0.237212 =       6.4549eV

 EXPECTATION VALUE OF S**2:             6.00503508

 NATURAL SPIN ORBITALS
 =====================


   Orb  Occ    Energy       Coefficients

                            1 1s      1 1s      1 1s      1 1s      1 1s      1 1s      1 1s      1 3d0     1 3d2+    1 3d0  
                            1 3d2+    1 3d0     1 3d2+    1 3d0     1 3d2+ 

   1.1   2    -0.0409     0.000000  0.000000  0.000000  0.000000  0.000000 -0.000000  0.000000  0.549236 -0.006002  0.405106
                         -0.004427  0.399310 -0.004364  0.028501 -0.000311

   2.1   2    -0.0409    -0.000000 -0.000000 -0.000000 -0.000000 -0.000000 -0.000000  0.000000  0.006002  0.549236  0.004427
                          0.405106  0.004364  0.399310  0.000311  0.028501

   3.1   2    -0.0031    -0.011679  0.030615  0.104160 -2.392305  1.404939  3.140137 -0.513463  0.000000 -0.000000  0.000000
                          0.000000 -0.000000  0.000000  0.000000 -0.000000

   4.1   2    -0.0001     0.061123  0.488868 -1.113948 -3.989363  0.847933  5.449293 -1.313739  0.000000 -0.000000  0.000000
                         -0.000000 -0.000000  0.000000  0.000000 -0.000000

   5.1   2     0.0001     0.189900  0.871003  0.817781  3.993251 -0.850130 -5.454604  1.314855 -0.000000  0.000000 -0.000000
                          0.000000  0.000000 -0.000000 -0.000000  0.000000

   6.1   2     0.0031     0.065821  0.260610  1.274047  2.374411 -1.394671 -3.115793  0.508612 -0.000000 -0.000000 -0.000000
                         -0.000000  0.000000 -0.000000 -0.000000  0.000000

   7.1   2     0.0409    -0.000000 -0.000000 -0.000000 -0.000000  0.000000  0.000000 -0.000000  0.379832  0.759591 -0.158772
                         -0.317514 -0.156837 -0.313644 -0.015198 -0.030394

   8.1   2     0.0409    -0.000000 -0.000000 -0.000000 -0.000000 -0.000000  0.000000 -0.000000  0.759591 -0.379832 -0.317514
                          0.158772 -0.313644  0.156837 -0.030394  0.015198

   9.1   -     1.0000    -0.001318 -0.003919 -0.019910  0.909138 -0.027798  0.094354  0.004271 -0.000000  0.000000  0.000000
                          0.000000  0.000000  0.000000 -0.000000 -0.000000

  10.1   0     0.0000     0.709392 -0.086792  0.204427  0.542697  0.027088 -2.013144  1.794094 -0.000000 -0.000000  0.000000
                         -0.000000  0.000000  0.000000 -0.000000 -0.000000

  11.1   0     0.0000     0.681312 -0.170003 -0.204932 -0.542704 -0.027088  2.013159 -1.794103 -0.000000 -0.000000  0.000000
                         -0.000000  0.000000  0.000000 -0.000000 -0.000000

                            1 2px     1 2px     1 2px     1 2px     1 2px     1 2px     1 4f1+    1 4f3+    1 4f1+    1 4f3+ 


   1.2   2    -0.0236     0.026037  0.654148 -2.433146  1.814219  0.876380 -0.033057 -0.437002  0.564168  0.022808 -0.029444

   2.2   2    -0.0007     0.690643 -0.211646 -9.014886  6.875426  3.342754 -0.152218  0.005409 -0.006984  0.175535 -0.226615

   3.2   2     0.0007     0.722263  0.150776  9.018817 -6.878584 -3.344160  0.152299 -0.005495  0.007094 -0.175398  0.226438

   4.2   2     0.0236     0.034736  0.756838  2.334758 -1.735857 -0.841063  0.031152  0.430613 -0.555919 -0.023313  0.030097

   5.2   0    -0.0000    -0.005326 -0.076160 -2.311240  1.416479  0.963942  0.784095  0.286576  0.186828 -0.534664 -0.307597

   6.2   0     0.0000     0.003970  0.053960  1.700398 -1.084604 -1.132011  0.851980 -0.166515 -0.080381  0.744065  0.492178

                            1 2py     1 2py     1 2py     1 2py     1 2py     1 2py     1 4f1-    1 4f3-    1 4f1-    1 4f3- 


   1.3   2    -0.0236     0.026037  0.654148 -2.433146  1.814219  0.876380 -0.033057 -0.437002 -0.564168  0.022808  0.029444

   2.3   2    -0.0007     0.690643 -0.211646 -9.014886  6.875426  3.342754 -0.152218  0.005409  0.006984  0.175535  0.226615

   3.3   2     0.0007     0.722263  0.150776  9.018817 -6.878584 -3.344160  0.152299 -0.005495 -0.007094 -0.175398 -0.226438

   4.3   2     0.0236     0.034736  0.756838  2.334758 -1.735857 -0.841063  0.031152  0.430613  0.555919 -0.023313 -0.030097

   5.3   0     0.0000     0.005586  0.051007  4.041868 -3.228317 -1.083682 -0.067275 -0.554731 -0.128346  0.950134  0.386736

   6.3   0     0.0000    -0.015727 -0.233534 -6.106359  3.687314  3.602824 -0.069872  0.119982  0.032671 -0.109477 -0.249236

                            1 3d2-    1 3d2-    1 3d2-    1 3d2- 

   1.4   -     1.0000     0.997833  0.013173  0.008582 -0.003751

   2.4   0     0.0000     0.071801  0.257493 -0.614115  1.211593

   3.4   0     0.0000    -0.500627 -1.131946  1.784860 -0.336477

                            1 2pz     1 2pz     1 2pz     1 2pz     1 2pz     1 2pz     1 4f0     1 4f2+    1 4f0     1 4f2+ 


   1.5   2    -0.0236     0.026037  0.654148 -2.433146  1.814219  0.876380 -0.033057  0.713622  0.000000 -0.037245 -0.000000

   2.5   2    -0.0007     0.690643 -0.211646 -9.014886  6.875426  3.342754 -0.152218 -0.008834 -0.000000 -0.286648 -0.000000

   3.5   2     0.0007     0.722263  0.150776  9.018817 -6.878584 -3.344160  0.152299  0.008973  0.000000  0.286424  0.000000

   4.5   2     0.0236     0.034736  0.756838  2.334758 -1.735857 -0.841063  0.031152 -0.703188 -0.000000  0.038070  0.000000

   5.5   0     0.0000    -0.000000 -0.000000 -0.000000  0.000000  0.000000 -0.000000  0.000000 -0.265067 -0.000000  1.093203

   6.5   0     0.0000    -0.000000 -0.000000 -0.000000  0.000000  0.000000 -0.000000  0.000000  1.093154 -0.000000 -0.264867

                            1 3d1+    1 3d1+    1 3d1+    1 3d1+ 

   1.6   -     1.0000     0.997833  0.013173  0.008582 -0.003751

   2.6   0    -0.0000    -0.101674  0.688592  0.524404 -0.668000

   3.6   0     0.0000     0.037530  0.504228 -0.456690  1.048514

                            1 3d1-    1 3d1-    1 3d1-    1 3d1- 

   1.7   -     1.0000     0.997833  0.013173  0.008582 -0.003751

   2.7   0    -0.0000     0.068086  0.165226 -0.603541  1.224254

   3.7   0     0.0000    -0.497674 -1.248452  1.774939 -0.327034

                            1 4f2-    1 4f2- 

   1.8   0     0.0000     1.093179 -0.264967

   2.8   0     0.0000    -0.264967  1.093179

 Occupation number threshold for canonical orbitals:  1.999000 (occupied),  0.001000 (virtual)

 Number of pseudo-canonical orbitals per symmetry:    5   2   2   0   2   0   0   0
 Number of active natural orbitals per symmetry:      1   0   0   1   0   1   1   0

 NATURAL CHARGE ORBITALS
 =======================


   Orb     Occ        Energy       Coefficients

                                   1 1s      1 1s      1 1s      1 1s      1 1s      1 1s      1 1s      1 3d0     1 3d2+    1 3d0  
                                   1 3d2+    1 3d0     1 3d2+    1 3d0     1 3d2+ 

   1.1  2.00000  -261.176346     0.983543 -0.180673 -0.000399 -0.000004 -0.000000  0.000009 -0.000006 -0.000000  0.000000 -0.000000
                                 0.000000  0.000000 -0.000000 -0.000000  0.000000

   2.1  2.00000   -31.715043     0.180672  0.983529  0.004936 -0.000035  0.000043  0.000032  0.000034  0.000000  0.000000  0.000000
                                 0.000000 -0.000000 -0.000000  0.000000  0.000000

   3.1  2.00000    -3.956806    -0.000716 -0.005571  0.996775 -0.012948  0.007425  0.017619 -0.003520  0.000000  0.000000  0.000000
                                -0.000000 -0.000000  0.000000  0.000000 -0.000000

   4.1  1.99916    -0.367399     0.000000  0.000000  0.000000  0.000000 -0.000000 -0.000000  0.000000  0.970810 -0.188350  0.034799
                                -0.006752  0.033780 -0.006554 -0.003803  0.000738

   5.1  1.99916    -0.367399    -0.000000 -0.000000 -0.000000 -0.000000  0.000000  0.000000  0.000000  0.188350  0.970810  0.006752
                                 0.034799  0.006554  0.033780 -0.000738 -0.003803

   6.1  1.00000    -0.090661    -0.001318 -0.003919 -0.019910  0.909138 -0.027798  0.094354  0.004271 -0.000000  0.000000 -0.000000
                                -0.000000  0.000000  0.000000 -0.000000 -0.000000

   7.1  0.00000     0.036584     0.012044  0.035663  0.173107  0.289414 -0.022631 -2.134645  2.284602 -0.000000  0.000000 -0.000000
                                -0.000000 -0.000000  0.000000 -0.000000 -0.000000

   8.1  0.00014     0.104827    -0.000000 -0.000000 -0.000000 -0.000000  0.000000 -0.000000  0.000000  0.000797 -0.063174 -0.000255
                                 0.020233  0.002299 -0.182320 -0.013779  1.092598

                                   1 2px     1 2px     1 2px     1 2px     1 2px     1 2px     1 4f1+    1 4f3+    1 4f1+    1 4f3+ 


   1.2  2.00000   -27.197525     0.999970  0.007564 -0.000749  0.000577  0.000272 -0.000011 -0.000289  0.000374  0.000079 -0.000102

   2.2  1.99972    -2.545101    -0.007701  0.998617 -0.069622  0.055453  0.024991 -0.001348 -0.004509  0.005821 -0.000362  0.000467

   3.2  0.00000     0.026414     0.000808  0.001920  0.657093 -0.348255 -0.469930  1.130068 -0.000116  0.000150 -0.000357  0.000461

   4.2  0.00000     0.093022    -0.006686 -0.127308 -1.100953  0.717673  1.987207 -1.087002 -0.000282  0.000364 -0.000935  0.001207

                                   1 2py     1 2py     1 2py     1 2py     1 2py     1 2py     1 4f1-    1 4f3-    1 4f1-    1 4f3- 


   1.3  2.00000   -27.197525     0.999970  0.007564 -0.000749  0.000577  0.000272 -0.000011 -0.000289 -0.000374  0.000079  0.000102

   2.3  1.99972    -2.545101    -0.007701  0.998617 -0.069622  0.055453  0.024991 -0.001348 -0.004509 -0.005821 -0.000362 -0.000467

   3.3  0.00000     0.026414     0.000808  0.001920  0.657093 -0.348255 -0.469930  1.130068 -0.000116 -0.000150 -0.000357 -0.000461

[...]
     32     20      0      0      0      1 ( 0, 0, 0) 0   0        0.249408461        0.249408461
     33     15      0      0      0     -1 ( 0, 0, 0) 0   0        0.102712153        0.102712153
     34     36      0      0      0      1 ( 0, 0, 1) 1   0        0.330658831        0.330658831
     35     17      0      0      0     -1 ( 0, 0, 0) 0   0        0.102712153        0.102712153
     36     52      0      0      0      1 ( 0, 0, 2) 2   0        0.330658831        0.330658831
     37     19      0      0      0     -1 ( 0, 0, 0) 0   0        0.214234841        0.214234841
     38     74      0      0      0      1 ( 0, 0, 4) 4   0        0.330658831        0.330658831
     39     35      0      0      0     -1 ( 0, 0, 1) 1   0        0.285775485        0.285775485
     40     22      0      0      0      1 ( 0, 0, 0) 0   0        0.412625397        0.412625397
     41     51      0      0      0     -1 ( 0, 0, 2) 2   0        0.285775485        0.285775485
     42     24      0      0      0      1 ( 0, 0, 0) 0   0        0.412625397        0.412625397
     43     73      0      0      0     -1 ( 0, 0, 4) 4   0        0.285775485        0.285775485
     44     66      0      0      0      1 ( 0, 0, 3) 3   0        0.434343970        0.434343970
     45     65      0      0      0     -1 ( 0, 0, 3) 3   0        0.381892119        0.381892119
     46     88      0      0      0      1 ( 0, 0, 5) 5   0        0.434343970        0.434343970
     47     87      0      0      0     -1 ( 0, 0, 5) 5   0        0.381892119        0.381892119
     48     94      0      0      0      1 ( 0, 0, 6) 6   0        0.434343970        0.434343970
     49     93      0      0      0     -1 ( 0, 0, 6) 6   0        0.381892119        0.381892119
     50      8      0      0      0      1 ( 0, 0, 3) 3   0        0.472201653        0.472201653
     51     21      0      0      0     -1 ( 0, 0, 0) 0   0        0.387260048        0.387260048
     52     10      0      0      0      1 ( 0, 0, 5) 5   0        0.472201653        0.472201653
     53     23      0      0      0     -1 ( 0, 0, 0) 0   0        0.387260048        0.387260048
     54     12      0      0      0      1 ( 0, 0, 6) 6   0        0.472201653        0.472201653
     55     97      0      0      0     -1 ( 0, 0, 7) 7   0        1.026310486        1.026310486
     56     76      0      0      0      1 ( 0, 0, 4) 4   0        1.065891727        1.065891727
     57     77      0      0      0     -1 ( 0, 0, 4) 4   0        1.029846641        1.029846641
     58     38      0      0      0      1 ( 0, 0, 1) 1   0        1.068010726        1.068010726
     59     39      0      0      0     -1 ( 0, 0, 1) 1   0        1.030915594        1.030915594
     60     54      0      0      0      1 ( 0, 0, 2) 2   0        1.068010726        1.068010726
     61     55      0      0      0     -1 ( 0, 0, 2) 2   0        1.030915594        1.030915594
     62     40      0      0      0      1 ( 0, 0, 1) 1   0        1.069418953        1.069418953
     63     37      0      0      0     -1 ( 0, 0, 1) 1   0        1.031630338        1.031630338
     64     56      0      0      0      1 ( 0, 0, 2) 2   0        1.069418953        1.069418953
     65     53      0      0      0     -1 ( 0, 0, 2) 2   0        1.031630338        1.031630338
     66     78      0      0      0      1 ( 0, 0, 4) 4   0        1.071524675        1.071524675
     67     75      0      0      0     -1 ( 0, 0, 4) 4   0        1.032705647        1.032705647
     68     98      0      0      0      1 ( 0, 0, 7) 7   0        1.078486991        1.078486991
     69     41      0      0      0     -1 ( 0, 0, 1) 1   0        1.109996868        1.109996868
     70     42      0      0      0      1 ( 0, 0, 1) 1   0        1.177152096        1.177152096
     71     57      0      0      0     -1 ( 0, 0, 2) 2   0        1.109996868        1.109996868
     72     58      0      0      0      1 ( 0, 0, 2) 2   0        1.177152096        1.177152096
     73     79      0      0      0     -1 ( 0, 0, 4) 4   0        1.109996868        1.109996868
     74     80      0      0      0      1 ( 0, 0, 4) 4   0        1.177152096        1.177152096
     75     25      0      0      0     -1 ( 0, 0, 0) 0   0        1.220877538        1.220877538
     76     26      0      0      0      1 ( 0, 0, 0) 0   0        1.294633156        1.294633156
     77     67      0      0      0     -1 ( 0, 0, 3) 3   0        1.870386038        1.870386038
     78     28      0      0      0      1 ( 0, 0, 0) 0   0        1.950145870        1.950145870
     79     89      0      0      0     -1 ( 0, 0, 5) 5   0        1.870386038        1.870386038
     80     30      0      0      0      1 ( 0, 0, 0) 0   0        1.950145870        1.950145870
     81     95      0      0      0     -1 ( 0, 0, 6) 6   0        1.870386038        1.870386038
     82     68      0      0      0      1 ( 0, 0, 3) 3   0        2.064049960        2.064049960
     83     27      0      0      0     -1 ( 0, 0, 0) 0   0        1.900347837        1.900347837
     84     90      0      0      0      1 ( 0, 0, 5) 5   0        2.064049960        2.064049960
     85     29      0      0      0     -1 ( 0, 0, 0) 0   0        1.900347837        1.900347837
     86     96      0      0      0      1 ( 0, 0, 6) 6   0        2.064049960        2.064049960
     87     99      0      0      0     -1 ( 0, 0, 7) 7   0        3.975268773        3.975268773
     88     82      0      0      0      1 ( 0, 0, 4) 4   0        4.128824699        4.128824699
     89     83      0      0      0     -1 ( 0, 0, 4) 4   0        3.997460926        3.997460926
     90     44      0      0      0      1 ( 0, 0, 1) 1   0        4.144569422        4.144569422
     91     45      0      0      0     -1 ( 0, 0, 1) 1   0        4.004110467        4.004110467
     92     60      0      0      0      1 ( 0, 0, 2) 2   0        4.144569422        4.144569422
     93     61      0      0      0     -1 ( 0, 0, 2) 2   0        4.004110467        4.004110467
     94     46      0      0      0      1 ( 0, 0, 1) 1   0        4.155070342        4.155070342
     95     43      0      0      0     -1 ( 0, 0, 1) 1   0        4.008541383        4.008541383
     96     62      0      0      0      1 ( 0, 0, 2) 2   0        4.155070342        4.155070342
     97     59      0      0      0     -1 ( 0, 0, 2) 2   0        4.008541383        4.008541383
     98     84      0      0      0      1 ( 0, 0, 4) 4   0        4.170828342        4.170828342
     99     81      0      0      0     -1 ( 0, 0, 4) 4   0        4.015184567        4.015184567
    100    100      0      0      0      1 ( 0, 0, 7) 7   0        4.223411765        4.223411765
 Fock operator energy:  -1243.87369032082     
 Setting normal GetUMatEl routine
Setting integer length of determinants as bit-strings to:      3
Setting integer bit-length of determinants as bit-strings to:     64
 SYMMETRY MULTIPLICATION TABLE
 No Symmetry table found.
                    36  Symmetry PAIRS
                     8  DISTINCT ORBITAL PAIR PRODUCT SYMS
 Symmetry and spin of orbitals correctly set up for excitation generators.
 Simply transferring this into a spin orbital representation.
 Not storing the H matrix.
 <D0|H|D0>=  -1262.37717799287     
 <D0|T|D0>=  -40.0829657989055     
 FDET                     1                     2                     3
                     4                     5                     7
                     9                    11
 FDet has     2 alpha electrons, and     6 beta electrons.
                          1  alpha-alpha occupied electron pairs
                         15  beta-beta occupied electron pairs
                         12  alpha-beta occupied electron pairs
                       1128 alpha-alpha (vacant) hole pairs
                        946 beta-beta (vacant) hole pairs
                       2112 alpha-beta (vacant) hole pairs
 
 Performing FCIQMC....
 
Symmetry of reference determinant is:          0
Symmetry of reference determinant from spin orbital symmetry info is:          0
*********** INITIATOR METHOD IN USE ***********
Starting with only the reference determinant in the fixed initiator space.
Value for seed is:            7

WARNING.  Error in SetupParameters
No iteration number specified. Only running for 100 iterations initially. Change with ITERATIONS option.

Reference Energy set to:     -1262.3771779929
 No brillouin theorem assumed. Single excitations also used to calculate project
 ed energy.
 Calculating approximate pDoubles for use with excitation generator by looking a excitations from reference.
   5362 double excitations, and      56 single excitations found from reference. This will be used to calculate pDoubles.
 pDoubles set to:       0.989664
 pSingles set to:       0.010336
From analysis of reference determinant and connections, an upper bound for the timestep is:       0.0016234107
 Using initial time-step:   1.623410708213630E-003
Will dynamically update timestep to limit spawning probability to   3.00000
Initial Diagonal Shift:         0.0000000000
 Connectivity of HF determinant is:                   5418
Low memory requested for walkers, so increasing memory to 20Mb to avoid memory errors
Memory allocated for a maximum particle number per node of:         655360
Spawning vectors allowing for a total of         3000 particles to be spawned in any one iteration per core.
Reference processor is:        0
Initial reference is: (    1,    2,    3,    4,    5,    7,    9,   11)
Initial number of particles set to          1 and shift will be held at     0.000 until particle number gets to           10000
 Initial memory (without excitgens + temp arrays) consists of :      20.137329 Mb/Processor
 Only one array of memory to store main particle list allocated...
 Initial memory allocation sucessful...
 
        Step    Shift           WalkerCng       GrowRate        TotWalkers      Annihil         NoDied          NoBorn          Proj.E          Av.Shift        Proj.E.Cyc      NoatHF          NoatDoubs       AccRat        UniqueDets   IterTime
           0    0.000000        0.000000        0.000000        1.000000        0.000000        0.000000        0.000000        0.000000        0.000000        0.000000        1.000000        0.000000        0.000000               1   0.0000    
          10    0.000000        0.000000        1.000000        1.000000        0.000000        0.000000        0.000000        0.000000        0.000000        0.000000        1.000000        0.000000        0.000000               1   0.0000    
          20    0.000000        0.000000        1.000000        1.000000        0.000000        0.000000        0.000000        0.000000        0.000000        0.000000        1.000000        0.000000        0.000000               1   0.0000    
          30    0.000000        0.000000        1.000000        1.000000        0.000000        0.000000        0.000000        0.000000        0.000000        0.000000        1.000000        0.000000        0.000000               1   0.0000    
          40    0.000000        1.000000        1.800000        2.000000        0.000000        0.000000        1.000000      -0.3154765E-01    0.000000      -0.1261906        1.000000        1.000000       0.5555556E-01           2   0.0000    
          50    0.000000        0.000000        1.111111        2.000000        0.000000        0.000000        1.000000      -0.5678577E-01    0.000000      -0.1577383        1.000000        1.000000       0.5000000E-01           2   0.0000    
          60    0.000000        0.000000        1.050000        2.000000        0.000000        1.000000        1.000000      -0.7393820E-01    0.000000      -0.1597003        1.000000        1.000000       0.4761905E-01           2   0.0000    
          70    0.000000        0.000000       0.9523810        2.000000        0.000000        0.000000        1.000000      -0.8590964E-01    0.000000      -0.1577383        1.000000        1.000000       0.5000000E-01           2  0.99897E-04
          80    0.000000        0.000000        1.000000        2.000000        0.000000        0.000000        0.000000      -0.9488822E-01    0.000000      -0.1577383        1.000000        1.000000        0.000000               2   0.0000    
          90    0.000000        0.000000        1.000000        2.000000        0.000000        0.000000        0.000000      -0.1018716        0.000000      -0.1577383        1.000000        1.000000        0.000000               2   0.0000    
         100    0.000000        1.000000        1.250000        3.000000        0.000000        0.000000        2.000000      -0.1096390        0.000000      -0.1795460        1.000000        2.000000       0.8000000E-01           3   0.0000    
 - - - - - - - - - - - - - - - - - - - - - - - -
 Total loop-time:   9.989738464355469E-004
 - - - - - - - - - - - - - - - - - - - - - - - -
 
Current reference: 
(    1,    2,    3,    4,    5,    7,    9,   11)
1111101010100000000000000000000000000000000000000000000000000000000000000000000000000000000000000000
 
Most occupied          3 determinants as excitations from reference: 
 
 Excitation   ExcitLevel   Seniority    Walkers    Weight    Init?   Proc
1111100000100000000000000000000000000000000000000000000000100000000000000000000010000000000000000000    2    4    1.000000      0.57735  N      0
1101100010100000000000000000000000000000001000000000000000100000000000000000000000000000000000000000    2    6   -1.000000      0.57735  N      0
1111101010100000000000000000000000000000000000000000000000000000000000000000000000000000000000000000    0    4    1.000000      0.57735  Y      0
 

 Load balancing information based on the last iteration:
 Mean number of determinants/process       3.0000000000
 Min number of determinants/process                  3
 Max number of determinants/process                  3


Calculating approximate errorbar for energy estimates...

Calculation has not entered variable shift phase. Error analysis therefore not performed.
Direct reblocking of instantaneous energy possible, but this would contain finite sampling bias.


RESULTS FOR STATE 1.1
=====================

 Current reference energy                           -1262.377177992867
 Projected correlation energy                          -0.109639005228
 No automatic errorbar obtained for projected energy
 No reliable averaged shift correlation energy could be obtained automatically

 Total projected energy       -1262.48681700
 !FCIQMC STATE 1.1 ENERGY           -1262.486816998095


 
 ================================================================
 Memory usage
 Maximum memory defined is (MB) :    8192.0
 Maximum memory used is    (MB) :      26.4
 
 Large memory allocations:
 
 Name              Allocated in       Deallocated in         Size
 - - - - - - - - - - - - - - - - - - - - - - - - - - - - - - - - 
 WalkVecDets       InitFCIMCPar       DeallocFciMCMemPar   15.0MB
 UMat              IntInit            IntCleanup            6.2MB
 WalkVecH          InitFCIMCPar       DeallocFciMCMemPar    5.0MB
 TMAT2D            SetupTMAT          not deallocated      78.1KB
 SpawnVec          InitFCIMCPar       DeallocFciMCMemPar   70.3KB
 SpawnVec2         InitFCIMCPar       DeallocFciMCMemPar   70.3KB
 G1                SysInit            not deallocated       5.5KB
 SymPairProds      GenSymStatePairs   EndSym                3.0KB
 Arr               SysInit            not deallocated       1.6KB
 SymReps           GENMOLPSYMREPS     EndSym                 800B
 ================================================================

 ================================================================
 Timing report.

 Timing of most expensive procedures.

 Procedure                    Calls       CPU    system     total
 - - - - - - - - - - - - - - - - - - - - - - - - - - - - - - - - 
 NECICUBE                         1      0.22      0.00      0.22
 SortTime                       100      0.00      0.00      0.00
 SysInit                          1      0.00      0.00      0.00
 SyncTime                       104      0.00      0.00      0.00
 WalkerTime                     100      0.00      0.00      0.00
 AnnihilTime                    100      0.00      0.00      0.00
 CommsTime                      100      0.00      0.00      0.00
 Compression interface          100      0.00      0.00      0.00
 Compress Sort interface        100      0.00      0.00      0.00
 AnnMainTime                    100      0.00      0.00      0.00
 - - - - - - - - - - - - - - - - - - - - - - - - - - - - - - - - 
 Total                                   0.22      0.00      0.22

 Global CPU time          0.23
 Global system time       0.00
 Global total time        0.23
 ================================================================
 Calculation ended 12/01/2019 at 07:39:39
 ================================================================
 
 CPU-time for FCIQMC:            0.2 sec
 Elapsed-time for FCIQMC         0.2 sec


 **********************************************************************************************************************************
 DATASETS  * FILE   NREC   LENGTH (MB)   RECORD NAMES
              1      20        9.80       500      610      700      900      950      970     1000      129      960     1100   
                                          VAR    BASINP    GEOM    SYMINP    ZMAT    AOBASIS   BASIS     P2S    ABASIS      S 
                                         1400     1410     1200     1210     1080     1600     1650     1300     1700     1380   
                                           T        V       H0       H01     AOSYM     SMH    MOLCAS    ERIS     OPER     JKOP   

              2       6        0.42       700     1000      520     2100     2200     2140   
                                         GEOM     BASIS   MCVARS     RHF      UHF     MCSCF   

 PROGRAMS   *        TOTAL    FCIQMC    CASSCF       UHF  UCCSD(T)  RCCSD(T)     RCISD       RHF       INT
 CPU TIMES  *         6.80      1.81      0.16      0.05      1.10      1.00      0.31      0.05      2.09
 REAL TIME  *        11.36 SEC
 DISK USED  *        16.50 MB      
 **********************************************************************************************************************************

1PROGRAM * FCI (Full CI)     Author: P.J. Knowles, 1984

 ***  Initialisation ***
 
 Molecular orbitals read from record     2140.2  Type=MCSCF/NATURAL (state 1.1)
 
 Frozen orbitals:              9 (  3  2  2  0  2  0  0  0)
 Active orbitals:             50 ( 12  8  8  4  8  4  4  2)
 Active electrons:             8
 Spin quantum number:          2.0
 Orbital pairs:                   219     168     168     144     168     144     144     120
 Strings:                     1984748 1986536 1986536 1986576 1986536 1986576 1986576 1986616
                                  169     168     168     144     168     144     144     120
 Determinants:               ****************************************************************

 Load integrals                8.9 sec
 Transform integrals           9.1 sec
 Storage for integrals:         214291
 Remaining memory:           *********

 Core energy:           -1240.79769987
 Run Hamiltonian processor DAVIDSON
 Symmetry:                   1
 Trial vector:                  0.00
 Result vector:                 0.00
 Maximum iterations:           90
 Convergence threshold:         0.0000100
 RHS vector:                    0.00
 Hamiltonian shift:             0.0000000
 Output threshold:              0.0500000
 Options:                        0
 Number of roots:             1
 insufficient memory available - require             2433231308  have 
                                                     2432777128
 the request was for real words
