Starting run at: Sat Sep 13 18:28:21 EDT 2025
 --invoking executable--
/cvmfs/restricted.computecanada.ca/easybuild/software/2023/x86-64-v4/Compiler/intel2023/cfour/2.1/bin/xjoda


   *************************************************************************
         <<<     CCCCCC     CCCCCC   |||     CCCCCC     CCCCCC   >>>
       <<<      CCC        CCC       |||    CCC        CCC         >>>
      <<<      CCC        CCC        |||   CCC        CCC            >>>
    <<<        CCC        CCC        |||   CCC        CCC              >>>
      <<<      CCC        CCC        |||   CCC        CCC            >>>
       <<<      CCC        CCC       |||    CCC        CCC         >>>
         <<<     CCCCCC     CCCCCC   |||     CCCCCC     CCCCCC   >>>
   *************************************************************************

     ****************************************************************
     * CFOUR Coupled-Cluster techniques for Computational Chemistry *
     ****************************************************************
 

   Department of Chemistry                Institut fuer Physikalische Chemie
   University of Florida                  Universitaet Mainz
   Gainesville, FL 32611, USA             D-55099 Mainz, Germany

   Department of Chemistry                Fakultaet fuer Chemie und Biowiss.
   Johns Hopkins University               Karlsruher Institut fuer Technologie
   Baltimore, MD 21218, USA               D-76131 Karlsruhe, Germany

   Department of Chemistry                Department of Physical Chemistry
   Southern Methodist University          Eotvos Lorand University
   Dallas, TX 75275, USA                  H-1053 Budapest, Hungary

 
                       Version 2.1
 
                     c607.nibi.sharcnet                                
                     Sat Sep 13 18:28:21 EDT 2025                      
                     integer*8 version is running
 
********************************************************************************
*                          Input from ZMAT file                                *
********************************************************************************
Frequencies on Fe(CO)4 (C3v), S0                                                
Fe                                                                              
C 1 rFeCAx                                                                      
C 1 rFeCEq 2 aCAxCEq                                                            
C 1 rFeCEq 2 aCAxCEq 3 dC                                                       
C 1 rFeCEq 2 aCAxCEq 3 dnC                                                      
O 1 rFeOAx 3 aCAxCEq 2 d0                                                       
O 1 rFeOEq 2 aCAxOEq 3 d0                                                       
O 1 rFeOEq 2 aCAxOEq 4 d0                                                       
O 1 rFeOEq 2 aCAxOEq 5 d0                                                       
                                                                                
rFeCAx  =    1.766187962670023                                                  
rFeCEq  =    1.848613849159921                                                  
rFeOAx  =    2.926573392448320                                                  
rFeOEq  =    3.005744198822011                                                  
aCAxCEq =   91.938235663845120                                                  
aCAxOEq =   91.040423263180415                                                  
d0      =    0.00000                                                            
dnC     = -120.00000                                                            
dC      =  120.0000                                                             
                                                                                
*ACES2(CALC=CCSD(T)                                                             
#UNITS=BOHR                                                                     
#COORD=CARTESIAN                                                                
#COORD=INTERNAL                                                                 
PRINT=4                                                                         
JODA_PRINT=4                                                                    
INPUT_MRCC=OFF                                                                  
CC_PROG=MRCC                                                                    
#FROZEN_COE=ON                                                                  
DROPMO=1>13                                                                     
CONTRACTION=GENERAL                                                             
#CONTRACTION=SEGMENTED                                                          
RELATIVISTIC=OFF                                                                
#EXCITE=EOMEE                                                                   
#ESTATE_CONV=5                                                                  
#ESTATE_SYM=2/2/2/2/2/2/2/2                                                     
XFORM_TOL=18                                                                    
SAVE_INTS=ON                                                                    
SCF_EXPORDER=6                                                                  
SCF_EXPSTART=5                                                                  
#SCF_DAMPING=1000                                                               
SCF_EXTRAPOLATION=ON                                                            
SCF_CONV=11                                                                     
SCF_MAXCYC=99999                                                                
CC_CONV=9                                                                       
CC_MAXCYC=999                                                                   
LINEQ_CONV=8                                                                    
LINEQ_MAXCYC=500                                                                
T3_EXTRAPOL=ON                                                                  
#SYMMETRY=OFF                                                                   
HFSTABILITY=FOLLOW                                                              
CHARGE=+0                                                                       
REFERENCE=RHF                                                                   
MULT=1                                                                          
ABCDTYPE=STANDARD                                                               
#OCCUPATION=3-2-2-0-1-0-0-0/3-1-1-0-1-0-0-0                                     
MEM=750                                                                         
MEM_UNIT=GB                                                                     
BASIS=SPECIAL)                                                                  
                                                                                
FE:VDZ-EMSL                                                                     
C:VDZ-EMSL                                                                      
C:VDZ-EMSL                                                                      
C:VDZ-EMSL                                                                      
C:VDZ-EMSL                                                                      
O:VDZ-EMSL                                                                      
O:VDZ-EMSL                                                                      
O:VDZ-EMSL                                                                      
O:VDZ-EMSL                                                                      
                                                                                
********************************************************************************
  @GTFLGS-W, Keyword #UNITS not known and is ignored.
  @GTFLGS-W, Keyword #COORD not known and is ignored.
  @GTFLGS-W, Keyword #COORD not known and is ignored.
  @GTFLGS-W, Keyword #FROZEN_COE not known and is ignored.
  @GTFLGS-W, Keyword #CONTRACTION not known and is ignored.
  @GTFLGS-W, Keyword #EXCITE not known and is ignored.
  @GTFLGS-W, Keyword #ESTATE_CONV not known and is ignored.
  @GTFLGS-W, Keyword #ESTATE_SYM not known and is ignored.
  @GTFLGS-W, Keyword #SCF_DAMPING not known and is ignored.
  @GTFLGS-W, Keyword #SYMMETRY not known and is ignored.
  @GTFLGS-W, Keyword #OCCUPATION not known and is ignored.
    -------------------------------------------------------------------
                    CFOUR Control Parameters 
    -------------------------------------------------------------------
        External           Internal           Value            Units
          Name               Name
    -------------------------------------------------------------------
       ABCDTYPE             IABCDT         STANDARD    [  0]    ***   
       ANHARMONIC           IANHAR         OFF         [  0]    ***   
       ANH_ALGORIT          IANALG         STANDARD    [  0]    ***   
       ANH_DERIVAT          IANDER         SECOND      [  1]    ***   
       ANH_MODE             ANHMOD         VIBRATION   [  0]    ***   
       ANH_STEPSIZ          ICUBST             50000          x 10-6  
       ANH_SYMMETR          IANHSM         ABELIAN     [  0]    ***   
       AO_LADDERS           IAOLAD         SINGLEPASS  [  1]    ***   
       AV_SCF               IAVSCF         OFF         [  0]    ***   
       BASIS                IBASIS         SPECIAL     [  0]    ***   
       BOTHVECTORS          BOTHVC         OFF         [  0]    ***   
       BOX_POTENT           IPIAB          OFF         [  0]    ***   
       BREIT                IBREIT         OFF         [  0]    ***   
       BRUCK_CONV           IBRTOL          10D-  4             ***   
       BRUECKNER            IBRKNR         OFF         [  0]    ***   
       BUFFERSIZE           IBUFFS              4096            ***   
       CACHE_RECS           ICHREC             10               ***   
       CALCLEVEL            ICLLVL         CCSD(T)     [ 22]    ***   
       CCORBOPT             ICCORB         OFF         [  0]  x 0.01  
       CC_CONV              ICCCNV          10D-  9             ***   
       CC_EXPORDER          ICCEOR              5               ***   
       CC_EXTRAPOL          ICCEXT         DIIS        [  1]    ***   
       CC_GUESS             ICCGES         MP2         [  0]    ***   
       CC_MAXCYC            ICCCYC            999              cycles 
       CC_PROGRAM           ICCPRO         MRCC        [  2]    ***   
       CHARGE               ICHRGE              0               ***   
       CHOLESKY             ICHOLE         OFF         [  0]    ***   
       CIS_CONV             ICISTL              5               ***   
       COMM_SIZE            IPSIZE            ***               ***   
       CONSTANT             ICONST         OLD         [  1]    ***   
       CONTINUUM            ICONTU         NONE        [  0]    ***   
       CONTRACTION          ICNTYP         GENERAL     [  1]    ***   
       COORDINATES          ICOORD         INTERNAL    [  0]    ***   
       CPHF_CONVER          ICPHFT          10D- 16             ***   
       CPHF_MAXCYC          ICPHFC             64              cycles 
       CUBIC                ICUBIC         OFF         [  0]    ***   
       CURVILINEAR          ICURVY         OFF         [  0]    ***   
       DBOC                 IDBOC          OFF         [  0]    ***   
       DCT                  IDCT           OFF         [  0]    ***   
       DERIV_LEV            IDRLVL         ZERO        [  0]    ***   
       DEVMEM_SIZE          IDVMEM         *********           MByte  
       DIAG_MRCC            IEOMST          10D-  0             ***   
       DIFF_TYPE            IDIFTY         RELAXED     [  0]    ***   
       DIRECT               IDIRCT         OFF         [  0]    ***   
       DROPMO               IDRPMO   1,  2,  3,  4,  5,  6,  7,  8,
                                     9, 10, 11, 12, 13,
       ECP                  IECP           OFF         [  0]    ***   
       EIGENVECTOR          IVEC                1               ***   
       EL_ANHARM            IELANH         OFF         [  0]    ***   
       EOMFOLLOW            IEOMSR         ENERGY      [  0]    ***   
       EOMIP                IEOMIP         OFF         [  0]    ***   
       EOMLEVEL             HBARFM         SAME        [  0]    ***   
       EOM_MRCC             IMRCCE         NEW         [  1]    ***   
       EOM_NONIT            EOMNON         OFF         [  0]    ***   
       EOM_NSING            IEOMSI          10D-  0             ***   
       EOM_NSTATES          IMRCCD         DAVIDSON    [  0]    ***   
       EOM_NTRIP            IEOMTR          10D-  0             ***   
       EOM_ORDER            IEXORD         ENERGY      [  0]    ***   
       EOM_PROPSTA          IEOMST              0               ***   
       ESTATE_CONV          IEXTOL          10D-  5             ***   
       ESTATE_DIAG          IEXDIG         ITERATIVE   [  0]    ***   
       ESTATE_LOCK          IESLOC         ON          [  1]    ***   
       ESTATE_MAXC          IEXMXC             40               ***   
       ESTATE_PROP          IEXPRP         OFF         [  0]    ***   
       EVAL_HESS            IRECAL              0            # of cyc.
       EXCITATION           IEXCIT              0               ***   
       EXCITE               IEXCIT         NONE        [  0]    ***   
       EXTERN_POT           IEXPOT         OFF         [  0]    ***   
       FCGRADNEW            IFCGNW         OFF         [  0]    ***   
       FC_FIELD             IFINFC              0             x 10-6  
       FD_CALTYPE           IFDCAL         GRADONLY    [  0]    ***   
       FD_PROJECT           IFDPRJ         OFF         [  1]    ***   
       FD_STEPSIZE          IDISFD              0            10-4 bohr
       FD_USEGROUP          IFDGRP         FULL        [  0]    ***   
       FILE_RECSIZ          IFLREC              4096           words  
       FINITE_PERT          IFIPER              0             x 10-6  
       FIXGEOM              IFIXGM         OFF         [  0]    ***   
       FOCK                 IFOCK          AO          [  1]    ***   
       FREQ_ALGORI          IVIALG         STANDARD    [  0]    ***   
       FROZEN_CORE          IFROCO         OFF         [  0]    ***   
       GAMMA_ABCD           IGABCD         STORE       [  0]    ***   
       GAMMA_ABCI           IGABCI         STORE       [  0]    ***   
       GENBAS_1             IGNBS1              0               ***   
       GENBAS_2             IGNBS2              0               ***   
       GENBAS_3             IGNBS3              0               ***   
       GENBAS_4             IGNBS4              0               ***   
       GEO_CONV             ICONTL              5              H/bohr 
       GEO_MAXCYC           IOPTCY             50               ***   
       GEO_MAXSTEP          IMXSTP            300            millibohr
       GEO_METHOD           INR            SINGLE_POINT[  5]    ***   
       GIAO                 IGIAO          OFF         [  1]    ***   
       GIMIC                IGIMIC         OFF         [  0]    ***   
       GRID                 IGRID          OFF         [  0]    ***   
       GRID_ALGO            IGALGO         SERIAL      [  0]    ***   
       GUESS                IGUESS         MOREAD      [  0]    ***   
       HBAR                 IHBAR          OFF         [  0]    ***   
       HESS_TYPE            IHESTP         SCF         [  0]    ***   
       HF2_FILE             IHF2Fl         USE         [  1]    ***   
       HFSTABILITY          ISTABL         FOLLOW      [  2]    ***   
       INCORE               INCORE         OFF         [  0]    ***   
       INPUT_MRCC           IMRCC          OFF         [  0]    ***   
       INTEGRALS            INTTYP         VMOL        [  1]    ***   
       JODA_PRINT           IJPRNT              4               ***   
       KEYWORD_OUT          IDMPKW         NO          [  0]    ***   
       LINDEP_TOL           ILINDP              8               ***   
       LINEQ_CONV           IZTACN          10D-  8           cycles  
       LINEQ_EXPOR          ILMAXD              5               ***   
       LINEQ_MAXCY          ILMAXC            500               ***   
       LINEQ_TYPE           ILTYPE         DIIS        [  1]    ***   
       LOCK_ORBOCC          ILOCOC         OFF         [  0]    ***   
       MEMORY_SIZE          IMEMSZ         *********           words  
       MEM_UNIT             IMEMU          GB          [  3]    ***   
       MRCC                 IMRCCC         OFF         [  0]    ***   
       MULTIPLICTY          IMULTP              1               ***   
       NACOUPLING           IVCOUP         OFF         [  0]    ***   
       NEGEVAL              IDIE           ABORT       [  0]    ***   
       NEWNORM              INEWNO         OFF         [  0]    ***   
       NON-HF               INONHF         OFF         [  0]    ***   
       NTOP_TAMP            ITOPT2             15               ***   
       NUC_MODEL            INUCMO         POINT       [  0]    ***   
       OCCUPATION           IOCCU   ESTIMATED BY SCF 
       OPEN-SHELL           IOPEN          SPIN-ORBITAL[  0]    ***   
       OPTVIB               IOPTVB         OFF         [  0]    ***   
       ORBITALS             IORBTP         STANDARD    [  0]    ***   
       PARALLEL             IPARAL         ON          [  1]    ***   
       PARA_INT             IPINTS         ON          [  1]    ***   
       PARA_PRINT           IPPRIN              0               ***   
       PERT_ORB             IPTORB         STANDARD    [  0]    ***   
       POINTS               IGRDFD              0               ***   
       PRINT                IPRNT               4               ***   
       PROPS                IPROPS         OFF         [  0]    ***   
       PROP_INTEGR          IINTYP         INTERNAL    [  0]    ***   
       PSI                  IPSI           OFF         [  0]    ***   
       QC_ALG               IQCALG         FLM         [  0]    ***   
       QC_LINALG            IQCLIN         TRIDIAG     [  2]    ***   
       QC_MAXCYC            IQCMAX          10D-100           cycles  
       QC_MAXSCFCY          IQCMSC          10D- 15           cycles  
       QC_RTRUST            IQCRTR          10D-  0           x 10-3  
       QC_SKIPSCF           IQCSKI         OFF         [  0]    ***   
       QC_START             IQCSTA          10D-  1             ***   
       QRHFGUESS            IQGUES         OFF         [  0]    ***   
       QUARTIC              IQUART         OFF         [  0]    ***   
       RAMAN_INT            IRAMIN         OFF         [  0]    ***   
       RAMAN_ORB            IRAMRE         UNRELAXED   [  0]    ***   
       RDO                  IRDOFM         OFF         [  0]    ***   
       REDUCE_REPR          REDREP         Ir          [  0]    ***   
       REFERENCE            IREFNC         RHF         [  0]    ***   
       RELATIVIST           IRELAT         OFF         [  0]    ***   
       RELAX_DENS           IRDENS         OFF         [  0]    ***   
       RESET_FLAGS          IRESET         OFF         [  0]    ***   
       RESTART_CC           ICCRES         OFF         [  0]    ***   
       ROT_EVEC             ROTVEC              0               ***   
       SAVE_INTS            ISVINT         ON          [  1]    ***   
       SCALE_ON             ISTCRT              0               ***   
       SCF_CONV             ISCFCV          10D- 11             ***   
       SCF_DAMPING          IDAMP               0             x 10-3  
       SCF_EXPORDE          IRPPOR              6               ***   
       SCF_EXPSTAR          IRPPLS              5               ***   
       SCF_EXTRAPO          IRPP           ON          [  1]    ***   
       SCF_MAXCYC           ISCFCY            ***              cycles 
       SCF_NOSTOP           ISCFST         OFF         [  0]    ***   
       SCF_PRINT            ISCFPR              0               ***   
       SCF_PROG             ISCFPR         SCF         [  0]    ***   
       SD_FIELD             IFINSD              0             x 10-6  
       SOPERT               IPERSO         OFF         [  0]    ***   
       SPHERICAL            IDFGHI         ON          [  1]    ***   
       SPINORBIT            ISOCAL         OFF         [  0]    ***   
       SPINROTATIO          ISRCON         OFF         [  0]    ***   
       SPIN_FLIP            ISPFLP         OFF         [  0]    ***   
       SPIN_ORBIT           ISPORB         OFF         [  0]    ***   
       SPIN_SCAL            ISCSMP         OFF         [  0]    ***   
       STEEPSCALE           ISTPSC              1000          x 10-3  
       SUBGROUP             ISUBGP         DEFAULT     [  0]    ***   
       SUBGRPAXIS           ISBXYZ         X           [  0]    ***   
       SYMMETRY             ISYM           ON          [  0]    ***   
       SYM_CHECK            ISYMCK         OVERRIDE    [  1]    ***   
       T3_EXTRAPOL          IT3EXT         ON          [  1]    ***   
       T4_EXTRAPOL          IT4EXP         OFF         [  0]    ***   
       TAMP_SUM             IEVERY              5               ***   
       TESTSUITE            ITESTS         OFF         [  0]    ***   
       THERMOCH             ITHERM         OFF         [  0]    ***   
       TOL_CHOLESK          ITOLCH          10D-  4             ***   
       TRANGRAD             IRESRM         OFF         [  0]    ***   
       TRANS_INV            ITRAIN         USE         [  0]    ***   
       TREAT_PERT           ITREAT         SIMULTANEOUS[  0]    ***   
       TRIP_ALGORI          ITRALG         NORMAL      [  0]    ***   
       UIJ_THRESHO          IUIJTH              1               ***   
       UNITS                IUNITS         ANGSTROM    [  0]    ***   
       UNOS                 IUNOS          OFF         [  0]    ***   
       UPDATE_HESS          IHUPDT         ON          [  1]    ***   
       VIBPHASE             ISETPH         STANDARD    [  0]    ***   
       VIBRATION            IVIB           NO          [  0]    ***   
       VIB_ALGORIT          IGEALG         STANDARD    [  0]    ***   
       VNATORB              IVNORB         OFF         [  0]    ***   
       VTRAN                IVTRAN         FULL/PARTIAL[  0]    ***   
       XFIELD               IXEFLD              0             x 10-6  
       XFORM_TOL            IXFTOL          10D- 18             ***   
       YFIELD               IYEFLD              0             x 10-6  
       ZFIELD               IZEFLD              0             x 10-6  
       ZSCALE_EXP           IZEXPS         OFF         [  0]    ***   
    -------------------------------------------------------------------
   9 entries found in Z-matrix 
   Job Title : Frequencies on Fe(CO)4 (C3v), S0                                                
 Variable names read by FETCHZ
  1           
  2           
  3           
  4 rFeCAx    
  5           
  6           
  7 rFeCEq    
  8 aCAxCEq   
  9           
 10 rFeCEq    
 11 aCAxCEq   
 12 dC        
 13 rFeCEq    
 14 aCAxCEq   
 15 dnC       
 16 rFeOAx    
 17 aCAxCEq   
 18 d0        
 19 rFeOEq    
 20 aCAxOEq   
 21 d0        
 22 rFeOEq    
 23 aCAxOEq   
 24 d0        
 25 rFeOEq    
 26 aCAxOEq   
 27 d0        
 Atomic symbols read by FETCHZ
  1 Fe   
  2 C    
  3 C    
  4 C    
  5 C    
  6 O    
  7 O    
  8 O    
  9 O    
 Connectivity matrix read by FETCHZ
  1   0
  2   0
  3   0
  4   1
  5   0
  6   0
  7   1
  8   2
  9   0
 10   1
 11   2
 12   3
 13   1
 14   2
 15   3
 16   1
 17   3
 18   2
 19   1
 20   2
 21   3
 22   1
 23   2
 24   4
 25   1
 26   2
 27   5
   There are  9 unique internal coordinates.
   Of these,  0 will be optimized.
   User supplied Z-matrix: 
--------------------------------------------------------------------------------
       SYMBOL    BOND      LENGTH    ANGLE     ANGLE     DIHED     ANGLE
                  TO      (ANGST)    WRT      (DEG)      WRT      (DEG)
--------------------------------------------------------------------------------
        Fe   
        C          1         rFeCA
        C          1         rFeCE      2        aCAxC
        C          1         rFeCE      2        aCAxC      3        dC   
        C          1         rFeCE      2        aCAxC      3        dnC  
        O          1         rFeOA      3        aCAxC      2        d0   
        O          1         rFeOE      2        aCAxO      3        d0   
        O          1         rFeOE      2        aCAxO      4        d0   
        O          1         rFeOE      2        aCAxO      5        d0   
                  *Initial values for internal coordinates* 
                      Name             Value
                        rFeCA           1.7661879627
                        rFeCE           1.8486138492
                        aCAxC          91.9382356638
                        dC            120.0000000000
                        dnC          -120.0000000000
                        rFeOA           2.9265733924
                        d0              0.0000000000
                        rFeOE           3.0057441988
                        aCAxO          91.0404232632
--------------------------------------------------------------------------------
   55.9349393000
   12.0000000000
   12.0000000000
   12.0000000000
   12.0000000000
   15.9949146300
   15.9949146300
   15.9949146300
   15.9949146300
 After translation to center of mass coordinates 
       -0.000000000000    0.000000000000   -0.710524706982
       -0.000000000000    0.000000000000    2.627087526559
        3.491375944699    0.000000000000   -0.828678120359
       -1.745687972349   -3.023620262271   -0.828678120359
       -1.745687972349    3.023620262271   -0.828678120359
       -0.000000000000    0.000000000000    4.819898647408
        5.679098078376    0.000000000000   -0.813661715266
       -2.839549039188   -4.918243206457   -0.813661715266
       -2.839549039188    4.918243206457   -0.813661715266
  Inertia tensor (amu*bohr**2)
 1532.35214   -0.00000    0.00000
   -0.00000 1532.35214    0.00000
    0.00000    0.00000 1986.44081
    Inertia tensor:
      ****************   -0.000000000000    0.000000000000
       -0.000000000000  ****************    0.000000000000
        0.000000000000    0.000000000000  ****************
  filter applied 
  filter applied 
    Principal axis orientation for molecular system: 
       -0.000000000000   -0.000000000000   -0.710524706982
       -0.000000000000   -0.000000000000    2.627087526559
        1.795841122364    2.994104315225   -0.828678120359
        1.695049837383   -3.052296190741   -0.828678120359
       -3.490890959747    0.058191875516   -0.828678120359
       -0.000000000000   -0.000000000000    4.819898647408
        2.921128526011    4.870232347469   -0.813661715266
        2.757180672236   -4.964887684979   -0.813661715266
       -5.678309198246    0.094655337510   -0.813661715266
    Diagonalized inertia tensor:
      ****************    0.000000000000    0.000000000000
        0.000000000000  ****************    0.000000000000
        0.000000000000    0.000000000000  ****************
    Eigenvectors of inertia tensor: 
        0.514364866691    0.857571445370    0.000000000000
       -0.857571445370    0.514364866691    0.000000000000
        0.000000000000    0.000000000000    1.000000000000
   Rotational constants (in cm-1): 
          0.0303053177             0.0392858263             0.0392858263
   Rotational constants (in MHz): 
        908.5306970135          1177.7596080323          1177.7596080323
  @SYMMETRY-I, Handedness of inertial frame: 1.00000
  @SYMMETRY-I, The symmetry group is 2-fold degenerate.
  @SYMMETRY-I, The molecule belongs to a point group with doubly degenerate representations.
  @SYMMETRY-I, Z is a C[ 3] axis.
  @SYMMETRY-I, The highest order rotational axis is C[ 3] about Z.
   Principal axis orientation for molecule:
       -0.000000000000    0.000000000000   -0.710524706982
       -0.000000000000    0.000000000000    2.627087526559
        1.745687972349   -3.023620262271   -0.828678120359
       -3.491375944699   -0.000000000000   -0.828678120359
        1.745687972349    3.023620262271   -0.828678120359
       -0.000000000000    0.000000000000    4.819898647408
        2.839549039188   -4.918243206457   -0.813661715266
       -5.679098078376    0.000000000000   -0.813661715266
        2.839549039188    4.918243206457   -0.813661715266
   Reflection in plane  2 is a valid symmetry operation.
  Symmetry bits:    2   0   0
********************************************************************************
   The full molecular point group is C3v .
   The largest Abelian subgroup of the full molecular point group is C s .
   The computational point group is C s .
********************************************************************************
--------------------------------------------------------------------------------
   Analysis of internal coordinates specified by Z-matrix 
--------------------------------------------------------------------------------
   *The nuclear repulsion energy is  578.548046005878746 a.u.
   *There are   6 degrees of freedom within the tot. symm. molecular subspace.
   *Z-matrix requests optimization of   0 coordinates.
   *The optimization is constrained.
   *The following   6 parameters can have non-zero 
    derivatives within the totally symmetric subspace:
             rFeCE[ 2]  rFeCA[ 1]  aCAxO[14]  aCAxC[ 8]  rFeOE[16]  rFeOA[10]
   *The following   0 parameters are to be optimized:

   *The following coordinates must be varied in an  unconstrained optimization.
             rFeCE[ 2]  rFeCA[ 1]  aCAxO[14]  aCAxC[ 8]  rFeOE[16]  rFeOA[10]
--------------------------------------------------------------------------------


 ----------------------------------------------------------------
         Coordinates used in calculation (QCOMP) 
 ----------------------------------------------------------------
 Z-matrix   Atomic            Coordinates (in bohr)
  Symbol    Number           X              Y              Z
 ----------------------------------------------------------------
     FE       26        -0.71052471    -0.00000000     0.00000000
     C         6         2.62708753    -0.00000000     0.00000000
     C         6        -0.82867812     1.74568797    -3.02362026
     C         6        -0.82867812    -3.49137594    -0.00000000
     C         6        -0.82867812     1.74568797     3.02362026
     O         8         4.81989865    -0.00000000     0.00000000
     O         8        -0.81366172     2.83954904    -4.91824321
     O         8        -0.81366172    -5.67909808     0.00000000
     O         8        -0.81366172     2.83954904     4.91824321
 ----------------------------------------------------------------
 
  Original Center of Mass Coordinates (QCOM) 
        -0.00000000000000         0.00000000000000        -0.71052470698220
        -0.00000000000000         0.00000000000000         2.62708752655932
         3.49137594469879         0.00000000000000        -0.82867812035923
        -1.74568797234939        -3.02362026227104        -0.82867812035923
        -1.74568797234939         3.02362026227104        -0.82867812035923
        -0.00000000000000         0.00000000000000         4.81989864740770
         5.67909807837556         0.00000000000000        -0.81366171526561
        -2.83954903918778        -4.91824320645662        -0.81366171526561
        -2.83954903918778         4.91824320645662        -0.81366171526561
 
  Transformation matrix between QCOM and QCOMP (OMAT) 
  (QCOM = OMAT * QCOMP, where Q is stored 3 x NATOMS)
         0.00000000000000         0.00000000000000         1.00000000000000
         0.50000000000000         0.86602540378444        -0.00000000000000
        -0.86602540378444         0.50000000000000        -0.00000000000000
  test:  OMAT * QCOMP = 
        -0.00000000000000        -0.00000000000000        -0.71052470698220
        -0.00000000000000         0.00000000000000         2.62708752655932
         3.49137594469879        -0.00000000000000        -0.82867812035923
        -1.74568797234939        -3.02362026227104        -0.82867812035923
        -1.74568797234939         3.02362026227104        -0.82867812035923
        -0.00000000000000         0.00000000000000         4.81989864740770
         5.67909807837556        -0.00000000000000        -0.81366171526561
        -2.83954903918778        -4.91824320645662        -0.81366171526561
        -2.83954903918778         4.91824320645662        -0.81366171526561
 
   Interatomic distance matrix (Angstroms) 
 
                 FE            C             C             C             C    
                [ 1]        [ 2]        [ 3]        [ 4]        [ 5]
  FE   [ 1]     0.00000
  C    [ 2]     1.76619     0.00000
  C    [ 3]     1.84861     2.59955     0.00000
  C    [ 4]     1.84861     2.59955     3.20006     0.00000
  C    [ 5]     1.84861     2.59955     3.20006     3.20006     0.00000
  O    [ 6]     2.92657     1.16039     3.51400     3.51400     3.51400
  O    [ 7]     3.00574     3.51379     1.15772     4.24234     4.24234
  O    [ 8]     3.00574     3.51379     4.24234     1.15772     4.24234
  O    [ 9]     3.00574     3.51379     4.24234     4.24234     1.15772
 
                 O             O             O             O    
                [ 6]        [ 7]        [ 8]        [ 9]
  O    [ 6]     0.00000
  O    [ 7]     4.23306     0.00000
  O    [ 8]     4.23306     5.20524     0.00000
  O    [ 9]     4.23306     5.20524     5.20524     0.00000
  Inertia tensor (amu*bohr**2)
 1986.44081    0.00000   -0.00000
    0.00000 1532.35214   -0.00000
   -0.00000   -0.00000 1532.35214
 rotcon2
   Rotational constants (in cm-1): 
          0.0303053177             0.0392858263             0.0392858263
   Rotational constants (in MHz): 
        908.5306970135          1177.7596080323          1177.7596080323
  ECPDATA file not present.   Using default ECPDATA. 
  @GTFLGS-W, Keyword #UNITS not known and is ignored.
  @GTFLGS-W, Keyword #COORD not known and is ignored.
  @GTFLGS-W, Keyword #COORD not known and is ignored.
  @GTFLGS-W, Keyword #FROZEN_COE not known and is ignored.
  @GTFLGS-W, Keyword #CONTRACTION not known and is ignored.
  @GTFLGS-W, Keyword #EXCITE not known and is ignored.
  @GTFLGS-W, Keyword #ESTATE_CONV not known and is ignored.
  @GTFLGS-W, Keyword #ESTATE_SYM not known and is ignored.
  @GTFLGS-W, Keyword #SCF_DAMPING not known and is ignored.
  @GTFLGS-W, Keyword #SYMMETRY not known and is ignored.
  @GTFLGS-W, Keyword #OCCUPATION not known and is ignored.
  There are  155 basis functions.
 @GEOPT-W, Archive file not created for single-point calculation.
 @CHECKOUT-I, Total execution time (CPU/WALL):        0.13/       0.36 seconds.
--executable xjoda finished with status     0 in        0.44 seconds (walltime).
 --invoking executable--
/cvmfs/restricted.computecanada.ca/easybuild/software/2023/x86-64-v4/Compiler/intel2023/cfour/2.1/bin/xvmol
 SERIAL VERSION OF MOLECULE STARTED
********************************************************************************
                    INPUT FROM MOL FILE
********************************************************************************
INTGRL        1    0    1    0    0    0    0    0    0                         
         *** CFOUR Program System (Release V0.1) ***                            
Frequencies on Fe(CO)4 (C3v), S0                                                
    7    1 Z          0.10E-08              0    0                              
   9999.00      3.00                                                            
         26.00000000    1    4    1    1    1    1                              
FE#1  -0.710524706982202  -0.000000000000000   0.000000000000000                
   20    6                                                                      
   4316265.00000000       8.048800000000000E-006 -4.156000000000000E-006        
  9.532200000000000E-007 -2.063000000000000E-007 -4.009400000000000E-007        
  0.000000000000000E+000                                                        
   646342.400000000       6.258299999999999E-005 -3.231400000000000E-005        
  7.414600000000000E-006 -1.604200000000000E-006 -3.189300000000000E-006        
  0.000000000000000E+000                                                        
   147089.700000000       3.290200000000000E-004 -1.699500000000000E-004        
  3.898400000000000E-005 -8.438400000000000E-006 -1.623100000000000E-005        
  0.000000000000000E+000                                                        
   41661.5200000000       1.387400000000000E-003 -7.171400000000000E-004        
  1.647200000000000E-004 -3.563200000000000E-005 -7.157900000000000E-005        
  0.000000000000000E+000                                                        
   13590.7700000000       5.023300000000000E-003 -2.603600000000000E-003        
  5.986000000000000E-004 -1.296000000000000E-004 -2.464000000000000E-004        
  0.000000000000000E+000                                                        
   4905.75000000000       1.610100000000000E-002 -8.399100000000000E-003        
  1.942400000000000E-003 -4.201500000000000E-004 -8.544900000000000E-004        
  0.000000000000000E+000                                                        
   1912.74600000000       4.590000000000000E-002 -2.434100000000000E-002        
  5.687200000000000E-003 -1.232000000000000E-003 -2.307600000000000E-003        
  0.000000000000000E+000                                                        
   792.604300000000       0.113620000000000      -6.251900000000001E-002        
  1.501300000000000E-002 -3.248900000000000E-003 -6.728300000000000E-003        
  0.000000000000000E+000                                                        
   344.806500000000       0.228390000000000      -0.136590000000000             
  3.452500000000000E-002 -7.493700000000000E-003 -1.366200000000000E-002        
  0.000000000000000E+000                                                        
   155.899900000000       0.322120000000000      -0.231270000000000             
  6.495800000000000E-002 -1.410100000000000E-002 -3.062200000000000E-002        
  0.000000000000000E+000                                                        
   72.2309100000000       0.238370000000000      -0.238370000000000             
  7.716199999999999E-002 -1.691600000000000E-002 -2.631100000000000E-002        
  0.000000000000000E+000                                                        
   32.7250600000000       7.404700000000000E-002  3.123800000000000E-002        
 -1.873400000000000E-002  4.219000000000000E-003 -9.760200000000000E-003        
  0.000000000000000E+000                                                        
   15.6676200000000       9.214200000000000E-002  0.508680000000000             
 -0.300920000000000       6.833800000000000E-002  0.180190000000000             
  0.000000000000000E+000                                                        
   7.50348300000000       9.339799999999999E-002  0.498770000000000             
 -0.455470000000000       0.109820000000000       0.152960000000000             
  0.000000000000000E+000                                                        
   3.31222300000000       1.574000000000000E-002  9.033600000000000E-002        
  0.128650000000000      -4.009000000000000E-002  5.505400000000000E-002        
  0.000000000000000E+000                                                        
   1.55847100000000      -4.186700000000000E-004 -6.005300000000000E-003        
  0.718330000000000      -0.217470000000000      -0.955140000000000             
  0.000000000000000E+000                                                        
  0.683914000000000       5.376300000000000E-005  2.312500000000000E-004        
  0.405170000000000      -0.246510000000000       0.258680000000000             
  0.000000000000000E+000                                                        
  0.146757000000000      -3.816700000000000E-005 -5.643700000000000E-004        
  2.168200000000000E-002  0.273140000000000        1.83400000000000             
  0.000000000000000E+000                                                        
  7.058300000000001E-002  4.319600000000000E-005  4.992300000000000E-004        
 -8.343600000000000E-003  0.574830000000000      -0.933320000000000             
  0.000000000000000E+000                                                        
  3.144900000000000E-002 -3.401000000000000E-006 -1.015300000000000E-004        
  3.659000000000000E-003  0.301270000000000      -0.698160000000000             
   1.00000000000000                                                             
   16    5                                                                      
   17745.6900000000       4.100000000000000E-005 -1.500000000000000E-005        
  3.000000000000000E-006  5.000000000000000E-006  0.000000000000000E+000        
   4200.72100000000       3.690000000000000E-004 -1.300000000000000E-004        
  2.900000000000000E-005  4.200000000000000E-005  0.000000000000000E+000        
   1364.42900000000       2.129000000000000E-003 -7.510000000000000E-004        
  1.650000000000000E-004  2.410000000000000E-004  0.000000000000000E+000        
   522.080600000000       9.369000000000001E-003 -3.329000000000000E-003        
  7.340000000000000E-004  1.085000000000000E-003  0.000000000000000E+000        
   221.459500000000       3.309700000000000E-002 -1.191200000000000E-002        
  2.626000000000000E-003  3.831000000000000E-003  0.000000000000000E+000        
   100.909600000000       9.443100000000000E-002 -3.493300000000000E-002        
  7.725000000000000E-003  1.142300000000000E-002  0.000000000000000E+000        
   48.4011500000000       0.208080000000000      -7.998900000000000E-002        
  1.773300000000000E-002  2.579200000000000E-002  0.000000000000000E+000        
   23.9853600000000       0.332330000000000      -0.134640000000000             
  3.005500000000000E-002  4.481800000000000E-002  0.000000000000000E+000        
   12.1825000000000       0.332990000000000      -0.138600000000000             
  3.109400000000000E-002  4.459800000000000E-002  0.000000000000000E+000        
   6.24229800000000       0.156840000000000       3.027800000000000E-002        
 -1.004800000000000E-002 -1.117700000000000E-002  0.000000000000000E+000        
   3.11094400000000       2.154900000000000E-002  0.333220000000000             
 -8.830600000000000E-002 -0.138130000000000       0.000000000000000E+000        
   1.50995800000000      -2.095000000000000E-003  0.456150000000000             
 -0.129820000000000      -0.188280000000000       0.000000000000000E+000        
  0.710845000000000      -1.739000000000000E-003  0.285050000000000             
 -7.693700000000001E-002 -0.107400000000000       0.000000000000000E+000        
  0.273190000000000      -3.000000000000000E-004  4.614400000000000E-002        
  0.212660000000000       0.444860000000000       0.000000000000000E+000        
  0.104233000000000       2.900000000000000E-005 -3.249000000000000E-003        
  0.573060000000000       0.640240000000000       0.000000000000000E+000        
  3.829100000000000E-002 -1.100000000000000E-005  1.357000000000000E-003        
  0.369650000000000       6.445700000000000E-002   1.00000000000000             
    8    3                                                                      
   113.344000000000       3.530000000000000E-003 -3.890000000000000E-003        
  0.000000000000000E+000                                                        
   33.6414000000000       2.578400000000000E-002 -2.844200000000000E-002        
  0.000000000000000E+000                                                        
   12.3310000000000       9.911900000000000E-002 -0.112430000000000             
  0.000000000000000E+000                                                        
   4.99478000000000       0.239070000000000      -0.274260000000000             
  0.000000000000000E+000                                                        
   2.07280000000000       0.357200000000000      -0.315550000000000             
  0.000000000000000E+000                                                        
  0.830753000000000       0.362190000000000       5.710900000000000E-002        
  0.000000000000000E+000                                                        
  0.309178000000000       0.236460000000000       0.563600000000000             
  0.000000000000000E+000                                                        
  0.100130000000000       6.011800000000000E-002  0.384640000000000             
   1.00000000000000                                                             
    2    1                                                                      
   3.22430000000000       0.422250000000000                                     
  0.775800000000000       0.771470000000000                                     
          6.00000000    1    3    1    1    1                                   
C #2   2.627087526559316  -0.000000000000000   0.000000000000000                
    9    3                                                                      
   6665.00000000000       6.920000000000000E-004 -1.460000000000000E-004        
  0.000000000000000E+000                                                        
   1000.00000000000       5.329000000000000E-003 -1.154000000000000E-003        
  0.000000000000000E+000                                                        
   228.000000000000       2.707700000000000E-002 -5.725000000000000E-003        
  0.000000000000000E+000                                                        
   64.7100000000000       0.101718000000000      -2.331200000000000E-002        
  0.000000000000000E+000                                                        
   21.0600000000000       0.274740000000000      -6.395500000000000E-002        
  0.000000000000000E+000                                                        
   7.49500000000000       0.448564000000000      -0.149981000000000             
  0.000000000000000E+000                                                        
   2.79700000000000       0.285074000000000      -0.127262000000000             
  0.000000000000000E+000                                                        
  0.521500000000000       1.520400000000000E-002  0.544529000000000             
  0.000000000000000E+000                                                        
  0.159600000000000      -3.191000000000000E-003  0.580496000000000             
   1.00000000000000                                                             
    4    2                                                                      
   9.43900000000000       3.810900000000000E-002  0.000000000000000E+000        
   2.00200000000000       0.209480000000000       0.000000000000000E+000        
  0.545600000000000       0.508557000000000       0.000000000000000E+000        
  0.151700000000000       0.468842000000000        1.00000000000000             
    1    1                                                                      
  0.550000000000000        1.00000000000000                                     
          6.00000000    1    3    1    1    1                                   
C #3  -0.828678120359226   1.745687972349393  -3.023620262271042                
    9    3                                                                      
   6665.00000000000       6.920000000000000E-004 -1.460000000000000E-004        
  0.000000000000000E+000                                                        
   1000.00000000000       5.329000000000000E-003 -1.154000000000000E-003        
  0.000000000000000E+000                                                        
   228.000000000000       2.707700000000000E-002 -5.725000000000000E-003        
  0.000000000000000E+000                                                        
   64.7100000000000       0.101718000000000      -2.331200000000000E-002        
  0.000000000000000E+000                                                        
   21.0600000000000       0.274740000000000      -6.395500000000000E-002        
  0.000000000000000E+000                                                        
   7.49500000000000       0.448564000000000      -0.149981000000000             
  0.000000000000000E+000                                                        
   2.79700000000000       0.285074000000000      -0.127262000000000             
  0.000000000000000E+000                                                        
  0.521500000000000       1.520400000000000E-002  0.544529000000000             
  0.000000000000000E+000                                                        
  0.159600000000000      -3.191000000000000E-003  0.580496000000000             
   1.00000000000000                                                             
    4    2                                                                      
   9.43900000000000       3.810900000000000E-002  0.000000000000000E+000        
   2.00200000000000       0.209480000000000       0.000000000000000E+000        
  0.545600000000000       0.508557000000000       0.000000000000000E+000        
  0.151700000000000       0.468842000000000        1.00000000000000             
    1    1                                                                      
  0.550000000000000        1.00000000000000                                     
          6.00000000    1    3    1    1    1                                   
C #4  -0.828678120359226  -3.491375944698786  -0.000000000000000                
    9    3                                                                      
   6665.00000000000       6.920000000000000E-004 -1.460000000000000E-004        
  0.000000000000000E+000                                                        
   1000.00000000000       5.329000000000000E-003 -1.154000000000000E-003        
  0.000000000000000E+000                                                        
   228.000000000000       2.707700000000000E-002 -5.725000000000000E-003        
  0.000000000000000E+000                                                        
   64.7100000000000       0.101718000000000      -2.331200000000000E-002        
  0.000000000000000E+000                                                        
   21.0600000000000       0.274740000000000      -6.395500000000000E-002        
  0.000000000000000E+000                                                        
   7.49500000000000       0.448564000000000      -0.149981000000000             
  0.000000000000000E+000                                                        
   2.79700000000000       0.285074000000000      -0.127262000000000             
  0.000000000000000E+000                                                        
  0.521500000000000       1.520400000000000E-002  0.544529000000000             
  0.000000000000000E+000                                                        
  0.159600000000000      -3.191000000000000E-003  0.580496000000000             
   1.00000000000000                                                             
    4    2                                                                      
   9.43900000000000       3.810900000000000E-002  0.000000000000000E+000        
   2.00200000000000       0.209480000000000       0.000000000000000E+000        
  0.545600000000000       0.508557000000000       0.000000000000000E+000        
  0.151700000000000       0.468842000000000        1.00000000000000             
    1    1                                                                      
  0.550000000000000        1.00000000000000                                     
          8.00000000    1    3    1    1    1                                   
O #5   4.819898647407699  -0.000000000000000   0.000000000000000                
    9    3                                                                      
   11720.0000000000       7.100000000000000E-004 -1.600000000000000E-004        
  0.000000000000000E+000                                                        
   1759.00000000000       5.470000000000000E-003 -1.263000000000000E-003        
  0.000000000000000E+000                                                        
   400.800000000000       2.783700000000000E-002 -6.267000000000000E-003        
  0.000000000000000E+000                                                        
   113.700000000000       0.104800000000000      -2.571600000000000E-002        
  0.000000000000000E+000                                                        
   37.0300000000000       0.283062000000000      -7.092400000000000E-002        
  0.000000000000000E+000                                                        
   13.2700000000000       0.448719000000000      -0.165411000000000             
  0.000000000000000E+000                                                        
   5.02500000000000       0.270952000000000      -0.116955000000000             
  0.000000000000000E+000                                                        
   1.01300000000000       1.545800000000000E-002  0.557368000000000             
  0.000000000000000E+000                                                        
  0.302300000000000      -2.585000000000000E-003  0.572759000000000             
   1.00000000000000                                                             
    4    2                                                                      
   17.7000000000000       4.301800000000000E-002  0.000000000000000E+000        
   3.85400000000000       0.228913000000000       0.000000000000000E+000        
   1.04600000000000       0.508728000000000       0.000000000000000E+000        
  0.275300000000000       0.460531000000000        1.00000000000000             
    1    1                                                                      
   1.18500000000000        1.00000000000000                                     
          8.00000000    1    3    1    1    1                                   
O #6  -0.813661715265613   2.839549039187778  -4.918243206456620                
    9    3                                                                      
   11720.0000000000       7.100000000000000E-004 -1.600000000000000E-004        
  0.000000000000000E+000                                                        
   1759.00000000000       5.470000000000000E-003 -1.263000000000000E-003        
  0.000000000000000E+000                                                        
   400.800000000000       2.783700000000000E-002 -6.267000000000000E-003        
  0.000000000000000E+000                                                        
   113.700000000000       0.104800000000000      -2.571600000000000E-002        
  0.000000000000000E+000                                                        
   37.0300000000000       0.283062000000000      -7.092400000000000E-002        
  0.000000000000000E+000                                                        
   13.2700000000000       0.448719000000000      -0.165411000000000             
  0.000000000000000E+000                                                        
   5.02500000000000       0.270952000000000      -0.116955000000000             
  0.000000000000000E+000                                                        
   1.01300000000000       1.545800000000000E-002  0.557368000000000             
  0.000000000000000E+000                                                        
  0.302300000000000      -2.585000000000000E-003  0.572759000000000             
   1.00000000000000                                                             
    4    2                                                                      
   17.7000000000000       4.301800000000000E-002  0.000000000000000E+000        
   3.85400000000000       0.228913000000000       0.000000000000000E+000        
   1.04600000000000       0.508728000000000       0.000000000000000E+000        
  0.275300000000000       0.460531000000000        1.00000000000000             
    1    1                                                                      
   1.18500000000000        1.00000000000000                                     
          8.00000000    1    3    1    1    1                                   
O #7  -0.813661715265613  -5.679098078375556   0.000000000000000                
    9    3                                                                      
   11720.0000000000       7.100000000000000E-004 -1.600000000000000E-004        
  0.000000000000000E+000                                                        
   1759.00000000000       5.470000000000000E-003 -1.263000000000000E-003        
  0.000000000000000E+000                                                        
   400.800000000000       2.783700000000000E-002 -6.267000000000000E-003        
  0.000000000000000E+000                                                        
   113.700000000000       0.104800000000000      -2.571600000000000E-002        
  0.000000000000000E+000                                                        
   37.0300000000000       0.283062000000000      -7.092400000000000E-002        
  0.000000000000000E+000                                                        
   13.2700000000000       0.448719000000000      -0.165411000000000             
  0.000000000000000E+000                                                        
   5.02500000000000       0.270952000000000      -0.116955000000000             
  0.000000000000000E+000                                                        
   1.01300000000000       1.545800000000000E-002  0.557368000000000             
  0.000000000000000E+000                                                        
  0.302300000000000      -2.585000000000000E-003  0.572759000000000             
   1.00000000000000                                                             
    4    2                                                                      
   17.7000000000000       4.301800000000000E-002  0.000000000000000E+000        
   3.85400000000000       0.228913000000000       0.000000000000000E+000        
   1.04600000000000       0.508728000000000       0.000000000000000E+000        
  0.275300000000000       0.460531000000000        1.00000000000000             
    1    1                                                                      
   1.18500000000000        1.00000000000000                                     
FINISH                                                                          
 
********************************************************************************
 ONE- AND TWO-ELECTRON INTEGRALS OVER SYMMETRY-ADAPTED AOS ARE CALCULATED.

  SPHERICAL HARMONICS ARE USED.
  
   7 TYPES OF ATOMS
   1 SYMMETRY OPERATIONS

   REFLECTION IN THE XY-PLANE
  
  INTEGRALS LESS THAN  0.10E-13 ARE NEGLECTED.

  ATOMIC TYPE NUMBER  1 :
  -----------------------

    NUCLEAR CHARGE:                       26
    NUMBER OF SYMMETRY INDEPENDENT ATOMS:  1
    HIGHEST ORBITAL TYPE:                  F

      1 GROUPS OF CGTOS OF S TYPE
      1 GROUPS OF CGTOS OF P TYPE
      1 GROUPS OF CGTOS OF D TYPE
      1 GROUPS OF CGTOS OF F TYPE

    NUCLEAR COORDINATES (IN A.U.) ARE :

    FE#1       -0.710524706982202        0.000000000000000        0.000000000000000
  
  ATOMIC TYPE NUMBER  2 :
  -----------------------

    NUCLEAR CHARGE:                        6
    NUMBER OF SYMMETRY INDEPENDENT ATOMS:  1
    HIGHEST ORBITAL TYPE:                  D

      1 GROUPS OF CGTOS OF S TYPE
      1 GROUPS OF CGTOS OF P TYPE
      1 GROUPS OF CGTOS OF D TYPE

    NUCLEAR COORDINATES (IN A.U.) ARE :

    C #2        2.627087526559316        0.000000000000000        0.000000000000000
  
  ATOMIC TYPE NUMBER  3 :
  -----------------------

    NUCLEAR CHARGE:                        6
    NUMBER OF SYMMETRY INDEPENDENT ATOMS:  1
    HIGHEST ORBITAL TYPE:                  D

      1 GROUPS OF CGTOS OF S TYPE
      1 GROUPS OF CGTOS OF P TYPE
      1 GROUPS OF CGTOS OF D TYPE

    NUCLEAR COORDINATES (IN A.U.) ARE :

    C #3       -0.828678120359226        1.745687972349393       -3.023620262271042
  
  ATOMIC TYPE NUMBER  4 :
  -----------------------

    NUCLEAR CHARGE:                        6
    NUMBER OF SYMMETRY INDEPENDENT ATOMS:  1
    HIGHEST ORBITAL TYPE:                  D

      1 GROUPS OF CGTOS OF S TYPE
      1 GROUPS OF CGTOS OF P TYPE
      1 GROUPS OF CGTOS OF D TYPE

    NUCLEAR COORDINATES (IN A.U.) ARE :

    C #4       -0.828678120359226       -3.491375944698786        0.000000000000000
  
  ATOMIC TYPE NUMBER  5 :
  -----------------------

    NUCLEAR CHARGE:                        8
    NUMBER OF SYMMETRY INDEPENDENT ATOMS:  1
    HIGHEST ORBITAL TYPE:                  D

      1 GROUPS OF CGTOS OF S TYPE
      1 GROUPS OF CGTOS OF P TYPE
      1 GROUPS OF CGTOS OF D TYPE

    NUCLEAR COORDINATES (IN A.U.) ARE :

    O #5        4.819898647407699        0.000000000000000        0.000000000000000
  
  ATOMIC TYPE NUMBER  6 :
  -----------------------

    NUCLEAR CHARGE:                        8
    NUMBER OF SYMMETRY INDEPENDENT ATOMS:  1
    HIGHEST ORBITAL TYPE:                  D

      1 GROUPS OF CGTOS OF S TYPE
      1 GROUPS OF CGTOS OF P TYPE
      1 GROUPS OF CGTOS OF D TYPE

    NUCLEAR COORDINATES (IN A.U.) ARE :

    O #6       -0.813661715265613        2.839549039187778       -4.918243206456620
  
  ATOMIC TYPE NUMBER  7 :
  -----------------------

    NUCLEAR CHARGE:                        8
    NUMBER OF SYMMETRY INDEPENDENT ATOMS:  1
    HIGHEST ORBITAL TYPE:                  D

      1 GROUPS OF CGTOS OF S TYPE
      1 GROUPS OF CGTOS OF P TYPE
      1 GROUPS OF CGTOS OF D TYPE

    NUCLEAR COORDINATES (IN A.U.) ARE :

    O #7       -0.813661715265613       -5.679098078375556        0.000000000000000
  
   INTERNUCLEAR DISTANCES (A) :

     FOR ATOM FE#1 (COORDINATES :  -0.71052   0.00000   0.00000)

     C #2   1     DISTANCE IS  1.766
     C #3   1     DISTANCE IS  1.849
     C #4   1     DISTANCE IS  1.849
     O #5   1     DISTANCE IS  2.927
     O #6   1     DISTANCE IS  3.006
     O #7   1     DISTANCE IS  3.006

     FOR ATOM C #2 (COORDINATES :   2.62709   0.00000   0.00000)

     C #3   1     DISTANCE IS  2.600
     C #4   1     DISTANCE IS  2.600
     O #5   1     DISTANCE IS  1.160
     O #6   1     DISTANCE IS  3.514
     O #7   1     DISTANCE IS  3.514

     FOR ATOM C #3 (COORDINATES :  -0.82868   1.74569  -3.02362)

     C #3   2     DISTANCE IS  3.200
     C #4   1     DISTANCE IS  3.200
     O #5   1     DISTANCE IS  3.514
     O #6   1     DISTANCE IS  1.158
     O #6   2     DISTANCE IS  4.242
     O #7   1     DISTANCE IS  4.242

     FOR ATOM C #4 (COORDINATES :  -0.82868  -3.49138   0.00000)

     O #5   1     DISTANCE IS  3.514
     O #6   1     DISTANCE IS  4.242
     O #7   1     DISTANCE IS  1.158

     FOR ATOM O #5 (COORDINATES :   4.81990   0.00000   0.00000)

     O #6   1     DISTANCE IS  4.233
     O #7   1     DISTANCE IS  4.233

     FOR ATOM O #6 (COORDINATES :  -0.81366   2.83955  -4.91824)

     O #6   2     DISTANCE IS  5.205
     O #7   1     DISTANCE IS  5.205

     FOR ATOM O #7 (COORDINATES :  -0.81366  -5.67910   0.00000)


   GROUP MULTIPLICATION TABLE :

         1   2
         2   1

   GAUSSIAN BASIS INFORMATION :

   ATOM                 EXPONENT      COEFFICIENTS

 FE#1  1    S   
+                 1 4316265.000000   0.0000080  -0.0000042   0.0000010  -0.0000002  -0.0000004   0.0000000
                  2  646342.400000   0.0000626  -0.0000323   0.0000074  -0.0000016  -0.0000032   0.0000000
                  3  147089.700000   0.0003290  -0.0001700   0.0000390  -0.0000084  -0.0000162   0.0000000
                  4   41661.520000   0.0013874  -0.0007171   0.0001647  -0.0000356  -0.0000716   0.0000000
                  5   13590.770000   0.0050233  -0.0026036   0.0005986  -0.0001296  -0.0002464   0.0000000
                  6    4905.750000   0.0161010  -0.0083991   0.0019424  -0.0004201  -0.0008545   0.0000000
                  7    1912.746000   0.0459000  -0.0243410   0.0056872  -0.0012320  -0.0023076   0.0000000
                  8     792.604300   0.1136200  -0.0625190   0.0150130  -0.0032489  -0.0067283   0.0000000
                  9     344.806500   0.2283900  -0.1365900   0.0345250  -0.0074937  -0.0136620   0.0000000
                 10     155.899900   0.3221200  -0.2312700   0.0649580  -0.0141010  -0.0306220   0.0000000
                 11      72.230910   0.2383700  -0.2383700   0.0771620  -0.0169160  -0.0263110   0.0000000
                 12      32.725060   0.0740470   0.0312380  -0.0187340   0.0042190  -0.0097602   0.0000000
                 13      15.667620   0.0921420   0.5086800  -0.3009200   0.0683380   0.1801900   0.0000000
                 14       7.503483   0.0933980   0.4987700  -0.4554700   0.1098200   0.1529600   0.0000000
                 15       3.312223   0.0157400   0.0903360   0.1286500  -0.0400900   0.0550540   0.0000000
                 16       1.558471  -0.0004187  -0.0060053   0.7183300  -0.2174700  -0.9551400   0.0000000
                 17       0.683914   0.0000538   0.0002313   0.4051700  -0.2465100   0.2586800   0.0000000
                 18       0.146757  -0.0000382  -0.0005644   0.0216820   0.2731400   1.8340000   0.0000000
                 19       0.070583   0.0000432   0.0004992  -0.0083436   0.5748300  -0.9333200   0.0000000
                 20       0.031449  -0.0000034  -0.0001015   0.0036590   0.3012700  -0.6981600   1.0000000

 FE#1  1    X   
+                21   17745.690000   0.0000410  -0.0000150   0.0000030   0.0000050   0.0000000
                 22    4200.721000   0.0003690  -0.0001300   0.0000290   0.0000420   0.0000000
                 23    1364.429000   0.0021290  -0.0007510   0.0001650   0.0002410   0.0000000
                 24     522.080600   0.0093690  -0.0033290   0.0007340   0.0010850   0.0000000
                 25     221.459500   0.0330970  -0.0119120   0.0026260   0.0038310   0.0000000
                 26     100.909600   0.0944310  -0.0349330   0.0077250   0.0114230   0.0000000
                 27      48.401150   0.2080800  -0.0799890   0.0177330   0.0257920   0.0000000
                 28      23.985360   0.3323300  -0.1346400   0.0300550   0.0448180   0.0000000
                 29      12.182500   0.3329900  -0.1386000   0.0310940   0.0445980   0.0000000
                 30       6.242298   0.1568400   0.0302780  -0.0100480  -0.0111770   0.0000000
                 31       3.110944   0.0215490   0.3332200  -0.0883060  -0.1381300   0.0000000
                 32       1.509958  -0.0020950   0.4561500  -0.1298200  -0.1882800   0.0000000
                 33       0.710845  -0.0017390   0.2850500  -0.0769370  -0.1074000   0.0000000
                 34       0.273190  -0.0003000   0.0461440   0.2126600   0.4448600   0.0000000
                 35       0.104233   0.0000290  -0.0032490   0.5730600   0.6402400   0.0000000
                 36       0.038291  -0.0000110   0.0013570   0.3696500   0.0644570   1.0000000

 FE#1  1    Y   
+                37   17745.690000   0.0000410  -0.0000150   0.0000030   0.0000050   0.0000000
                 38    4200.721000   0.0003690  -0.0001300   0.0000290   0.0000420   0.0000000
                 39    1364.429000   0.0021290  -0.0007510   0.0001650   0.0002410   0.0000000
                 40     522.080600   0.0093690  -0.0033290   0.0007340   0.0010850   0.0000000
                 41     221.459500   0.0330970  -0.0119120   0.0026260   0.0038310   0.0000000
                 42     100.909600   0.0944310  -0.0349330   0.0077250   0.0114230   0.0000000
                 43      48.401150   0.2080800  -0.0799890   0.0177330   0.0257920   0.0000000
                 44      23.985360   0.3323300  -0.1346400   0.0300550   0.0448180   0.0000000
                 45      12.182500   0.3329900  -0.1386000   0.0310940   0.0445980   0.0000000
                 46       6.242298   0.1568400   0.0302780  -0.0100480  -0.0111770   0.0000000
                 47       3.110944   0.0215490   0.3332200  -0.0883060  -0.1381300   0.0000000
                 48       1.509958  -0.0020950   0.4561500  -0.1298200  -0.1882800   0.0000000
                 49       0.710845  -0.0017390   0.2850500  -0.0769370  -0.1074000   0.0000000
                 50       0.273190  -0.0003000   0.0461440   0.2126600   0.4448600   0.0000000
                 51       0.104233   0.0000290  -0.0032490   0.5730600   0.6402400   0.0000000
                 52       0.038291  -0.0000110   0.0013570   0.3696500   0.0644570   1.0000000

 FE#1  1    Z   
+                53   17745.690000   0.0000410  -0.0000150   0.0000030   0.0000050   0.0000000
                 54    4200.721000   0.0003690  -0.0001300   0.0000290   0.0000420   0.0000000
                 55    1364.429000   0.0021290  -0.0007510   0.0001650   0.0002410   0.0000000
                 56     522.080600   0.0093690  -0.0033290   0.0007340   0.0010850   0.0000000
                 57     221.459500   0.0330970  -0.0119120   0.0026260   0.0038310   0.0000000
                 58     100.909600   0.0944310  -0.0349330   0.0077250   0.0114230   0.0000000
                 59      48.401150   0.2080800  -0.0799890   0.0177330   0.0257920   0.0000000
                 60      23.985360   0.3323300  -0.1346400   0.0300550   0.0448180   0.0000000
                 61      12.182500   0.3329900  -0.1386000   0.0310940   0.0445980   0.0000000
                 62       6.242298   0.1568400   0.0302780  -0.0100480  -0.0111770   0.0000000
                 63       3.110944   0.0215490   0.3332200  -0.0883060  -0.1381300   0.0000000
                 64       1.509958  -0.0020950   0.4561500  -0.1298200  -0.1882800   0.0000000
                 65       0.710845  -0.0017390   0.2850500  -0.0769370  -0.1074000   0.0000000
                 66       0.273190  -0.0003000   0.0461440   0.2126600   0.4448600   0.0000000
                 67       0.104233   0.0000290  -0.0032490   0.5730600   0.6402400   0.0000000
                 68       0.038291  -0.0000110   0.0013570   0.3696500   0.0644570   1.0000000

 FE#1  1    XX  
+                69     113.344000   0.0035300  -0.0038900   0.0000000
                 70      33.641400   0.0257840  -0.0284420   0.0000000
                 71      12.331000   0.0991190  -0.1124300   0.0000000
                 72       4.994780   0.2390700  -0.2742600   0.0000000
                 73       2.072800   0.3572000  -0.3155500   0.0000000
                 74       0.830753   0.3621900   0.0571090   0.0000000
                 75       0.309178   0.2364600   0.5636000   0.0000000
                 76       0.100130   0.0601180   0.3846400   1.0000000

 FE#1  1    XY  
+                77     113.344000   0.0035300  -0.0038900   0.0000000
                 78      33.641400   0.0257840  -0.0284420   0.0000000
                 79      12.331000   0.0991190  -0.1124300   0.0000000
                 80       4.994780   0.2390700  -0.2742600   0.0000000
                 81       2.072800   0.3572000  -0.3155500   0.0000000
                 82       0.830753   0.3621900   0.0571090   0.0000000
                 83       0.309178   0.2364600   0.5636000   0.0000000
                 84       0.100130   0.0601180   0.3846400   1.0000000

 FE#1  1    XZ  
+                85     113.344000   0.0035300  -0.0038900   0.0000000
                 86      33.641400   0.0257840  -0.0284420   0.0000000
                 87      12.331000   0.0991190  -0.1124300   0.0000000
                 88       4.994780   0.2390700  -0.2742600   0.0000000
                 89       2.072800   0.3572000  -0.3155500   0.0000000
                 90       0.830753   0.3621900   0.0571090   0.0000000
                 91       0.309178   0.2364600   0.5636000   0.0000000
                 92       0.100130   0.0601180   0.3846400   1.0000000

 FE#1  1    YY  
+                93     113.344000   0.0035300  -0.0038900   0.0000000
                 94      33.641400   0.0257840  -0.0284420   0.0000000
                 95      12.331000   0.0991190  -0.1124300   0.0000000
                 96       4.994780   0.2390700  -0.2742600   0.0000000
                 97       2.072800   0.3572000  -0.3155500   0.0000000
                 98       0.830753   0.3621900   0.0571090   0.0000000
                 99       0.309178   0.2364600   0.5636000   0.0000000
                100       0.100130   0.0601180   0.3846400   1.0000000

 FE#1  1    YZ  
+               101     113.344000   0.0035300  -0.0038900   0.0000000
                102      33.641400   0.0257840  -0.0284420   0.0000000
                103      12.331000   0.0991190  -0.1124300   0.0000000
                104       4.994780   0.2390700  -0.2742600   0.0000000
                105       2.072800   0.3572000  -0.3155500   0.0000000
                106       0.830753   0.3621900   0.0571090   0.0000000
                107       0.309178   0.2364600   0.5636000   0.0000000
                108       0.100130   0.0601180   0.3846400   1.0000000

 FE#1  1    ZZ  
+               109     113.344000   0.0035300  -0.0038900   0.0000000
                110      33.641400   0.0257840  -0.0284420   0.0000000
                111      12.331000   0.0991190  -0.1124300   0.0000000
                112       4.994780   0.2390700  -0.2742600   0.0000000
                113       2.072800   0.3572000  -0.3155500   0.0000000
                114       0.830753   0.3621900   0.0571090   0.0000000
                115       0.309178   0.2364600   0.5636000   0.0000000
                116       0.100130   0.0601180   0.3846400   1.0000000

 FE#1  1    F300
+               117       3.224300   0.4222500
                118       0.775800   0.7714700

 FE#1  1    F210
+               119       3.224300   0.4222500
                120       0.775800   0.7714700

 FE#1  1    F201
+               121       3.224300   0.4222500
                122       0.775800   0.7714700

 FE#1  1    F120
+               123       3.224300   0.4222500
                124       0.775800   0.7714700

 FE#1  1    F111
+               125       3.224300   0.4222500
                126       0.775800   0.7714700

 FE#1  1    F102
+               127       3.224300   0.4222500
                128       0.775800   0.7714700

 FE#1  1    F030
+               129       3.224300   0.4222500
                130       0.775800   0.7714700

 FE#1  1    F021
+               131       3.224300   0.4222500
                132       0.775800   0.7714700

 FE#1  1    F012
+               133       3.224300   0.4222500
                134       0.775800   0.7714700

 FE#1  1    F003
+               135       3.224300   0.4222500
                136       0.775800   0.7714700

 C #2  1    S   
+               137    6665.000000   0.0006920  -0.0001460   0.0000000
                138    1000.000000   0.0053290  -0.0011540   0.0000000
                139     228.000000   0.0270770  -0.0057250   0.0000000
                140      64.710000   0.1017180  -0.0233120   0.0000000
                141      21.060000   0.2747400  -0.0639550   0.0000000
                142       7.495000   0.4485640  -0.1499810   0.0000000
                143       2.797000   0.2850740  -0.1272620   0.0000000
                144       0.521500   0.0152040   0.5445290   0.0000000
                145       0.159600  -0.0031910   0.5804960   1.0000000

 C #2  1    X   
+               146       9.439000   0.0381090   0.0000000
                147       2.002000   0.2094800   0.0000000
                148       0.545600   0.5085570   0.0000000
                149       0.151700   0.4688420   1.0000000

 C #2  1    Y   
+               150       9.439000   0.0381090   0.0000000
                151       2.002000   0.2094800   0.0000000
                152       0.545600   0.5085570   0.0000000
                153       0.151700   0.4688420   1.0000000

 C #2  1    Z   
+               154       9.439000   0.0381090   0.0000000
                155       2.002000   0.2094800   0.0000000
                156       0.545600   0.5085570   0.0000000
                157       0.151700   0.4688420   1.0000000

 C #2  1    XX  
+               158       0.550000   1.0000000

 C #2  1    XY  
+               159       0.550000   1.0000000

 C #2  1    XZ  
+               160       0.550000   1.0000000

 C #2  1    YY  
+               161       0.550000   1.0000000

 C #2  1    YZ  
+               162       0.550000   1.0000000

 C #2  1    ZZ  
+               163       0.550000   1.0000000

 C #3  1    S   
+               164    6665.000000   0.0006920  -0.0001460   0.0000000
                165    1000.000000   0.0053290  -0.0011540   0.0000000
                166     228.000000   0.0270770  -0.0057250   0.0000000
                167      64.710000   0.1017180  -0.0233120   0.0000000
                168      21.060000   0.2747400  -0.0639550   0.0000000
                169       7.495000   0.4485640  -0.1499810   0.0000000
                170       2.797000   0.2850740  -0.1272620   0.0000000
                171       0.521500   0.0152040   0.5445290   0.0000000
                172       0.159600  -0.0031910   0.5804960   1.0000000

 C #3  2    S   
+               173    6665.000000   0.0006920  -0.0001460   0.0000000
                174    1000.000000   0.0053290  -0.0011540   0.0000000
                175     228.000000   0.0270770  -0.0057250   0.0000000
                176      64.710000   0.1017180  -0.0233120   0.0000000
                177      21.060000   0.2747400  -0.0639550   0.0000000
                178       7.495000   0.4485640  -0.1499810   0.0000000
                179       2.797000   0.2850740  -0.1272620   0.0000000
                180       0.521500   0.0152040   0.5445290   0.0000000
                181       0.159600  -0.0031910   0.5804960   1.0000000

 C #3  1    X   
+               182       9.439000   0.0381090   0.0000000
                183       2.002000   0.2094800   0.0000000
                184       0.545600   0.5085570   0.0000000
                185       0.151700   0.4688420   1.0000000

 C #3  2    X   
+               186       9.439000   0.0381090   0.0000000
                187       2.002000   0.2094800   0.0000000
                188       0.545600   0.5085570   0.0000000
                189       0.151700   0.4688420   1.0000000

 C #3  1    Y   
+               190       9.439000   0.0381090   0.0000000
                191       2.002000   0.2094800   0.0000000
                192       0.545600   0.5085570   0.0000000
                193       0.151700   0.4688420   1.0000000

 C #3  2    Y   
+               194       9.439000   0.0381090   0.0000000
                195       2.002000   0.2094800   0.0000000
                196       0.545600   0.5085570   0.0000000
                197       0.151700   0.4688420   1.0000000

 C #3  1    Z   
+               198       9.439000   0.0381090   0.0000000
                199       2.002000   0.2094800   0.0000000
                200       0.545600   0.5085570   0.0000000
                201       0.151700   0.4688420   1.0000000

 C #3  2    Z   
[...]
   -0.025735  17a 17b -> 36a 36b                                        
    0.011841  17a 17b -> 37a 36b                                        
    0.011841  17a 17b -> 36a 37b                                        
   -0.010642  18a 18b -> 40a 40b                                        
   -0.013915  24a 24b -> 40a 40b                                        
   -0.016208  28a 28b -> 36a 36b                                        
    0.011785  28a 28b -> 37a 36b                                        
    0.011785  28a 28b -> 36a 37b                                        
   -0.014454  28a 28b -> 37a 37b                                        
   -0.010777  11a 11b -> 36a 36b                                        
   -0.013018  15a 15b -> 32a 32b                                        
    0.010846  15a 15b -> 34a 32b                                        
    0.010846  15a 15b -> 32a 34b                                        
   -0.011636  15a 15b -> 34a 34b                                        
    0.012232  15a 15b -> 40a 34b                                        
    0.012232  15a 15b -> 34a 40b                                        
   -0.027655  15a 15b -> 40a 40b                                        
    0.017025  23a 15b -> 40a 32b                                        
   -0.015193  23a 15b -> 40a 34b                                        
    0.015118  23a 15b -> 32a 40b                                        
   -0.012907  23a 15b -> 34a 40b                                        
    0.010603  23a 15b -> 40a 40b                                        
   -0.025735  16a 16b -> 36a 36b                                        
   -0.011841  16a 16b -> 37a 36b                                        
   -0.011841  16a 16b -> 36a 37b                                        
   -0.020300  16a 16b -> 37a 37b                                        
    0.019043  19a 16b -> 37a 36b                                        
    0.018990  19a 16b -> 36a 37b                                        
    0.018990  16a 19b -> 37a 36b                                        
    0.019043  16a 19b -> 36a 37b                                        
   -0.028561  19a 19b -> 36a 36b                                        
   -0.014144  19a 19b -> 37a 37b                                        
   -0.013025  21a 21b -> 40a 40b                                        
    0.015118  15a 23b -> 40a 32b                                        
   -0.012907  15a 23b -> 40a 34b                                        
    0.017025  15a 23b -> 32a 40b                                        
   -0.015193  15a 23b -> 34a 40b                                        
    0.010603  15a 23b -> 40a 40b                                        
   -0.010187  23a 23b -> 32a 32b                                        
   -0.011193  23a 23b -> 34a 34b                                        
   -0.025913  23a 23b -> 40a 40b                                        
   -0.032407  25a 25b -> 32a 32b                                        
    0.022830  25a 25b -> 34a 32b                                        
    0.022830  25a 25b -> 32a 34b                                        
   -0.019886  25a 25b -> 34a 34b                                        
    0.016540  27a 25b -> 34a 32b                                        
    0.024125  27a 25b -> 37a 32b                                        
   -0.015421  27a 25b -> 34a 34b                                        
   -0.014354  27a 25b -> 37a 34b                                        
    0.016540  25a 27b -> 32a 34b                                        
   -0.015421  25a 27b -> 34a 34b                                        
    0.024125  25a 27b -> 32a 37b                                        
   -0.014354  25a 27b -> 34a 37b                                        
   -0.011919  27a 27b -> 32a 32b                                        
   -0.016048  27a 27b -> 37a 32b                                        
   -0.022184  27a 27b -> 34a 34b                                        
   -0.027998  27a 27b -> 37a 34b                                        
   -0.016208  27a 27b -> 36a 36b                                        
   -0.011785  27a 27b -> 37a 36b                                        
   -0.016048  27a 27b -> 32a 37b                                        
   -0.027998  27a 27b -> 34a 37b                                        
   -0.011785  27a 27b -> 36a 37b                                        
   -0.055139  27a 27b -> 37a 37b                                        
    0.010261  27a 27b -> 40a 37b                                        
    0.017247  27a 27b -> 51a 37b                                        
    0.010261  27a 27b -> 37a 40b                                        
    0.017247  27a 27b -> 37a 51b                                        
   -0.011196  27a 27b -> 51a 51b                                        
   -0.015863  14a 15b -> 39a 40b                                        
    0.011841  17a 16b -> 38a 36b                                        
    0.018990  17a 19b -> 38a 36b                                        
   -0.010759  28a 21b -> 38a 37b                                        
   -0.014408  22a 23b -> 39a 40b                                        
   -0.010300  28a 23b -> 38a 37b                                        
   -0.011683  18a 25b -> 42a 32b                                        
    0.012720  24a 25b -> 29a 32b                                        
   -0.013852  24a 25b -> 41a 32b                                        
    0.021306  24a 25b -> 42a 32b                                        
    0.011255  24a 25b -> 47a 32b                                        
    0.010990  24a 25b -> 41a 34b                                        
   -0.015717  24a 25b -> 42a 34b                                        
   -0.022608  26a 25b -> 31a 32b                                        
    0.016915  26a 25b -> 33a 32b                                        
    0.016915  26a 25b -> 31a 34b                                        
   -0.012096  26a 25b -> 33a 34b                                        
    0.018695  28a 25b -> 33a 32b                                        
    0.027598  28a 25b -> 38a 32b                                        
   -0.012371  28a 25b -> 33a 34b                                        
   -0.018206  28a 25b -> 38a 34b                                        
   -0.010759  20a 27b -> 38a 37b                                        
   -0.010300  22a 27b -> 38a 37b                                        
   -0.011483  24a 27b -> 42a 34b                                        
   -0.014225  24a 27b -> 42a 37b                                        
    0.018695  26a 27b -> 31a 34b                                        
   -0.012371  26a 27b -> 33a 34b                                        
    0.027598  26a 27b -> 31a 37b                                        
   -0.018206  26a 27b -> 33a 37b                                        
   -0.013501  28a 27b -> 33a 34b                                        
   -0.017241  28a 27b -> 38a 34b                                        
    0.011785  28a 27b -> 38a 36b                                        
   -0.017241  28a 27b -> 33a 37b                                        
   -0.026571  28a 27b -> 38a 37b                                        
    0.010510  28a 27b -> 50a 37b                                        
    0.010510  28a 27b -> 38a 51b                                        
    0.011841  16a 17b -> 38a 36b                                        
    0.019043  19a 17b -> 38a 36b                                        
    0.011785  27a 28b -> 38a 36b                                        
   -0.014115  27a 28b -> 38a 37b                                        
    0.011841  17a 16b -> 36a 38b                                        
    0.019043  17a 19b -> 36a 38b                                        
    0.011785  28a 27b -> 36a 38b                                        
   -0.014115  28a 27b -> 37a 38b                                        
   -0.015863  15a 14b -> 40a 39b                                        
    0.011841  16a 17b -> 36a 38b                                        
    0.018990  19a 17b -> 36a 38b                                        
   -0.011683  25a 18b -> 32a 42b                                        
   -0.010759  27a 20b -> 37a 38b                                        
   -0.014408  23a 22b -> 40a 39b                                        
   -0.010300  27a 22b -> 37a 38b                                        
    0.012720  25a 24b -> 32a 29b                                        
   -0.013852  25a 24b -> 32a 41b                                        
    0.010990  25a 24b -> 34a 41b                                        
    0.021306  25a 24b -> 32a 42b                                        
   -0.015717  25a 24b -> 34a 42b                                        
    0.011255  25a 24b -> 32a 47b                                        
   -0.011483  27a 24b -> 34a 42b                                        
   -0.014225  27a 24b -> 37a 42b                                        
   -0.022608  25a 26b -> 32a 31b                                        
    0.016915  25a 26b -> 34a 31b                                        
    0.016915  25a 26b -> 32a 33b                                        
   -0.012096  25a 26b -> 34a 33b                                        
    0.018695  27a 26b -> 34a 31b                                        
    0.027598  27a 26b -> 37a 31b                                        
   -0.012371  27a 26b -> 34a 33b                                        
   -0.018206  27a 26b -> 37a 33b                                        
   -0.010759  21a 28b -> 37a 38b                                        
   -0.010300  23a 28b -> 37a 38b                                        
    0.018695  25a 28b -> 32a 33b                                        
   -0.012371  25a 28b -> 34a 33b                                        
    0.027598  25a 28b -> 32a 38b                                        
   -0.018206  25a 28b -> 34a 38b                                        
   -0.013501  27a 28b -> 34a 33b                                        
   -0.017241  27a 28b -> 37a 33b                                        
   -0.017241  27a 28b -> 34a 38b                                        
    0.011785  27a 28b -> 36a 38b                                        
   -0.026571  27a 28b -> 37a 38b                                        
    0.010510  27a 28b -> 51a 38b                                        
    0.010510  27a 28b -> 37a 50b                                        
    0.011724  24a 26a -> 31a 41a                                        
   -0.017097  24a 26a -> 31a 42a                                        
    0.012786  24a 26a -> 33a 42a                                        
    0.013858  25a 27a -> 32a 34a                                        
    0.015801  25a 27a -> 32a 37a                                        
   -0.011231  25a 27a -> 34a 37a                                        
    0.013858  26a 28a -> 31a 33a                                        
    0.015801  26a 28a -> 31a 38a                                        
   -0.011231  26a 28a -> 33a 38a                                        
    0.011724  24a 25a -> 32a 41a                                        
   -0.017097  24a 25a -> 32a 42a                                        
    0.012786  24a 25a -> 34a 42a                                        
    0.016870  25a 26a -> 31a 32a                                        
    0.013151  25a 26a -> 32a 33a                                        
   -0.013151  25a 26a -> 31a 34a                                        
    0.014210  26a 27a -> 31a 34a                                        
    0.020273  26a 27a -> 31a 37a                                        
   -0.013413  26a 27a -> 33a 37a                                        
    0.014210  25a 28a -> 32a 33a                                        
    0.020273  25a 28a -> 32a 38a                                        
   -0.013413  25a 28a -> 34a 38a                                        
    0.011528  27a 28a -> 33a 37a                                        
   -0.011528  27a 28a -> 34a 38a                                        
   -0.012455  27a 28a -> 37a 38a                                        

 ************************ 2025-09-13 19:08:11 *************************
 Executing goldstone...

 Generation of MRCC equations in terms of H and T...
 Generation of antisymmetrized Goldstone diagrams...
 Number of diagrams in T^1 equations:    15
 Number of diagrams in T^2 equations:    38
 Number of diagrams in T^3 equations:    49
 Number of diagrams in T^4 equations:     5
 Translation of diagrams to factorized equations...
 Number of restricted diagrams in T^1 equations:     78
 Number of restricted diagrams in T^2 equations:    344
 Number of restricted diagrams in T^3 equations:    822
 Number of restricted diagrams in T^4 equations:     86
 Optimizing intermediate calculation...
 Number of floating-point operations per iteration step:   1.0723E+17
 Probable CPU time per iteration step (hours): *********
 Required memory (Mbytes): *********
 Number of intermediates:                                 546
 Number of intermediates to be stored:                    217
 Length of intermediate file (Mbytes):  719858.5

 ************************ 2025-09-13 19:08:15 *************************
 Executing xmrcc...

 **********************************************************************
 MRCC(                     4 ) calculation 
 
 
 Allocation of****** Mbytes of memory...
 Number of spinorbitals:                   284
 Number of alpha electrons:                       28
 Number of beta electrons:                        28
 Number of active particles:                   114
 Number of active holes:                         0
 Spin multiplicity:                     1
 z-component of spin:  0.0
 Spatial symmetry:                      1
 Convergence criterion:  1.0E-07
 Construction of occupation graphs...
 Number of                     0 -fold excitations:                      1
 Number of                     1 -fold excitations:                   3384
 Number of                     2 -fold excitations:                7551720
 Number of                     3 -fold excitations:             8560091760
 Total number of configurations:             8567646865
 Calculation of coupling coefficients...
 Length of intermediate file (Mbytes):  456580.7
 
 ======================================================================
 
 Spin case  1   Alpha:  0   Beta:  4
 Number of excitations:             4043978400
 Spin case  2   Alpha:  1   Beta:  3
 Number of excitations:            76492896480
 Spin case  3   Alpha:  2   Beta:  2
 Number of excitations:           181978713504
 Spin case  4   Alpha:  0   Beta:  4
 Number of excitations:            17074307250
 Spin case  5   Alpha:  1   Beta:  3
 Number of excitations:            76492896480
 Spin case  6   Alpha:  1   Beta:  3
 Number of excitations:           237822600288
 Spin case  7   Alpha:  2   Beta:  2
 Number of excitations:           370456929864
 Spin case  8   Alpha:  0   Beta:  4
 Number of excitations:            26076975960
 Spin case  9   Alpha:  1   Beta:  3
 Number of excitations:           237822718560
 Spin case 10   Alpha:  1   Beta:  3
 Number of excitations:           237822849888
 Spin case 11   Alpha:  2   Beta:  2
 Number of excitations:           181978495776
 Spin case 12   Alpha:  2   Beta:  2
 Number of excitations:           754145136180
 Spin case 13   Alpha:  0   Beta:  4
 Number of excitations:            17074401630
 Spin case 14   Alpha:  1   Beta:  3
 Number of excitations:           237822929760
 Spin case 15   Alpha:  1   Beta:  3
 Number of excitations:            76493006304
 Spin case 16   Alpha:  2   Beta:  2
 Number of excitations:           370456373880
 Spin case 17   Alpha:  0   Beta:  4
 Number of excitations:             4043971140
 Spin case 18   Alpha:  1   Beta:  3
 Number of excitations:            76492989408
 Spin case 19   Alpha:  2   Beta:  2
 Number of excitations:           181978371360
 Number of                     4 -fold excitations:          5615038863180
 
 Memory requirements /Mbyte/: 
               Minimal        Optimal
 Real*8:     276732.1499    276732.1499
 Integer:      1785.2468
 Total:      278517.3967    278517.3967
 

 ************************ 2025-09-13 19:08:25 *************************
 Executing mrcc...

 **********************************************************************
 CCSDT(Q) calculation                                                   
 
 
 OpenMP parallel version is running.
 Number of CPU cores:  36
 Allocation of******* Mbytes of memory...
 Number of spinorbitals: 284
 Number of alpha electrons: 28
 Number of beta  electrons: 28
 Number of active particles:                   114
 Number of active holes:                         0
 Spin multiplicity: 1
 z-component of spin:  0.0
 Spatial symmetry: 1
 Convergence criterion:  1.0E-07
 Construction of occupation graphs...
 Number of 0-fold excitations: 1
 Number of 1-fold excitations: 3384
 Number of 2-fold excitations: 7551720
 Number of 3-fold excitations: 8560091760
 Total number of determinants: 8567646865
 Calculation of coupling coefficients...
 Initial cluster amplitudes are read from unit 16.
 Length of intermediate file (Mbytes):  456580.7
 Reading integral list from unit 55...
 Sorting integrals...
 Energy of reference determinant [au]:   -1713.225068384640
 Calculation of MP denominators...
 
 Starting CC iteration...
 ======================================================================
 Norm of residual vector:     0.70333451
 CPU time [min]:  3817.142                   Wall time [min]:   786.594
 
 Iteration  1  CC energy: -1715.05346181  Energy decrease:   1.7121E-10
 ======================================================================
 Norm of residual vector:     0.29704591
 CPU time [min]:  8159.355                   Wall time [min]:  1528.062
 
 Iteration  2  CC energy: -1715.11474658  Energy decrease:   0.06128477
 ======================================================================
 Norm of residual vector:     0.11060298
 CPU time [min]: 12218.499                   Wall time [min]:  2205.240
 
 Iteration  3  CC energy: -1715.13877962  Energy decrease:   0.02403304
 ======================================================================
 Norm of residual vector:     0.06313047
 CPU time [min]: 16221.256                   Wall time [min]:  2901.225
 
 Iteration  4  CC energy: -1715.14534135  Energy decrease:   0.00656173
 ======================================================================
 Norm of residual vector:     0.03013627
 CPU time [min]: 20055.333                   Wall time [min]:  3593.596
 
 Iteration  5  CC energy: -1715.15186278  Energy decrease:   0.00652144
 ======================================================================
 Norm of residual vector:     0.01771889
 CPU time [min]: 23861.111                   Wall time [min]:  4303.061
 
 Iteration  6  CC energy: -1715.15384167  Energy decrease:   0.00197889
 ======================================================================
 Norm of residual vector:     0.01000689
 CPU time [min]: 27943.282                   Wall time [min]:  5303.086
 
 Iteration  7  CC energy: -1715.15445954  Energy decrease:   0.00061787
 ======================================================================
 Norm of residual vector:     0.00646192
 CPU time [min]: 32001.378                   Wall time [min]:  6469.321
 
 Iteration  8  CC energy: -1715.15490393  Energy decrease:   0.00044440
 ======================================================================
