 --invoking executable--
/home/nike/cfour_v2.00beta/bin/xjoda


   *************************************************************************
         <<<     CCCCCC     CCCCCC   |||     CCCCCC     CCCCCC   >>>
       <<<      CCC        CCC       |||    CCC        CCC         >>>
      <<<      CCC        CCC        |||   CCC        CCC            >>>
    <<<        CCC        CCC        |||   CCC        CCC              >>>
      <<<      CCC        CCC        |||   CCC        CCC            >>>
       <<<      CCC        CCC       |||    CCC        CCC         >>>
         <<<     CCCCCC     CCCCCC   |||     CCCCCC     CCCCCC   >>>
   *************************************************************************

     ****************************************************************
     * CFOUR Coupled-Cluster techniques for Computational Chemistry *
     ****************************************************************
 

   Department of Chemistry                Institut fuer Physikalische Chemie
   University of Texas at Austin          Universitaet Mainz
   Austin, TX  78712, USA                 D-55099 Mainz, Germany
 
                       Version 2.00beta
 
                     wob145                                            
                     Sat Jun 30 18:05:57 EDT 2018                      
                     integer*8 version is running
 
********************************************************************************
*                          Input from ZMAT file                                *
********************************************************************************
TITLE                                                                           
N                                                                               
                                                                                
*ACES2(CALC=CCSD                                                                
FROZEN_CORE=ON                                                                  
#DROPMO=1                                                                       
INPUT_MRCC=OFF                                                                  
CC_PROG=MRCC                                                                    
XFORM_TOL=18                                                                    
SAVE_INTS=ON                                                                    
SCF_EXPORDER=6                                                                  
SCF_EXPSTART=5                                                                  
#SCF_DAMPING=1000                                                               
SCF_EXTRAPOLATION=ON                                                            
SCF_CONV=10                                                                     
SCF_MAXCYC=9999                                                                 
CC_CONV=10                                                                      
CC_MAXCYC=999                                                                   
T3_EXTRAPOL=ON                                                                  
REFERENCE=ROHF                                                                  
CHARGE=+0                                                                       
MULT=4                                                                          
ABCDTYPE=STANDARD                                                               
OCCUPATION=2-1-1-0-1-0-0-0/2-0-0-0-0-0-0-0                                      
MEM=32                                                                          
MEM_UNIT=GB                                                                     
BASIS=SPECIAL)                                                                  
                                                                                
N:aVDZ-EMSL                                                                     
                                                                                
********************************************************************************
  @GTFLGS-W, Keyword #DROPMO not known and is ignored.
  @GTFLGS-W, Keyword #SCF_DAMPING not known and is ignored.
    -------------------------------------------------------------------
                    CFOUR Control Parameters 
    -------------------------------------------------------------------
        External           Internal           Value            Units
          Name               Name
    -------------------------------------------------------------------
       ABCDTYPE             IABCDT         STANDARD     [  0]   ***   
       ANHARMONIC           IANHAR         OFF          [  0]   ***   
       ANH_ALGORIT          IANALG         STANDARD     [  0]   ***   
       ANH_DERIVAT          IANDER         SECOND       [  1]   ***   
       ANH_STEPSIZ          ICUBST             50000          x 10-6  
       ANH_SYMMETR          IANHSM         ABELIAN      [  0]   ***   
       AO_LADDERS           IAOLAD         SINGLEPASS   [  1]   ***   
       BASIS                IBASIS         SPECIAL      [  0]   ***   
       BREIT                IBREIT         OFF          [  0]   ***   
       BRUCK_CONV           IBRTOL          10D-  4             ***   
       BRUECKNER            IBRKNR             OFF      [  0]   ***   
       BUFFERSIZE           IBUFFS            600               ***   
       CACHE_RECS           ICHREC             10               ***   
       CALCLEVEL            ICLLVL           CCSD       [ 10]   ***   
       CCORBOPT             ICCORB             OFF      [  0] x 0.01  
       CC_CONV              ICCCNV          10D- 10             ***   
       CC_EXPORDER          ICCEOR              5               ***   
       CC_EXTRAPOL          ICCEXT             DIIS     [  1]   ***   
       CC_MAXCYC            ICCCYC            999              cycles 
       CC_PROGRAM           ICCPRO         MRCC         [  2]   ***   
       CHARGE               ICHRGE              0               ***   
       CHOLESKY             ICHOLE         OFF          [  0]   ***   
       CIS_CONV             ICISTL              5               ***   
       COMM_SIZE            IPSIZE            ***               ***   
       CONSTANT             ICONST         OLD          [  1]   ***   
       CONTINUUM            ICONTU         NONE         [  0]   ***   
       CONTRACTION          ICNTYP          GENERAL     [  1]   ***   
       COORDINATES          ICOORD         INTERNAL     [  0]   ***   
       CPHF_CONVER          ICPHFT          10D- 16             ***   
       CPHF_MAXCYC          ICPHFC             64              cycles 
       CUBIC                ICUBIC         OFF          [  0]   ***   
       CURVILINEAR          ICURVY            OFF       [  0]   ***   
       DBOC                 IDBOC          OFF          [  0]   ***   
       DCT                  IDCT           OFF          [  0]   ***   
       DERIV_LEV            IDRLVL            ZERO      [  0]   ***   
       DIAG_MRCC            IEOMST          10D-  0             ***   
       DIFF_TYPE            IDIFTY         RELAXED      [  0]   ***   
       DIRECT               IDIRCT         OFF          [  0]   ***   
       DROPMO               IDRPMO      NONE         
       ECP                  IECP           OFF          [  0]   ***   
       EIGENVECTOR          IVEC                1               ***   
       EL_ANHARM            IELANH         OFF          [  0]   ***   
       EOMFOLLOW            IEOMSR         ENERGY       [  0]   ***   
       EOM_MRCC             IMRCCE         NEW          [  1]   ***   
       EOM_NONIT            EOMNON         OFF          [  0]   ***   
       EOM_NSING            IEOMSI          10D-  0             ***   
       EOM_NSTATES          IMRCCD         DAVIDSON     [  0]   ***   
       EOM_NTRIP            IEOMTR          10D-  0             ***   
       EOM_ORDER            IEXORD         ENERGY       [  0]   ***   
       ESTATE_CONV          IEXTOL          10D-  5             ***   
       ESTATE_DIAG          IEXDIG         ITERATIVE    [  0]   ***   
       ESTATE_LOCK          IESLOC         ON           [  1]   ***   
       ESTATE_MAXC          IEXMXC             20               ***   
       ESTATE_PROP          IEXPRP         OFF          [  0]   ***   
       EVAL_HESS            IRECAL              0            # of cyc.
       EXCITATION           IEXCIT              0               ***   
       EXCITE               IEXCIT         NONE         [  0]   ***   
       FCGRADNEW            IFCGNW         OFF          [  0]   ***   
       FC_FIELD             IFINFC              0             x 10-6  
       FD_CALTYPE           IFDCAL         GRADONLY     [  0]   ***   
       FD_PROJECT           IFDPRJ         OFF          [  1]   ***   
       FD_STEPSIZE          IDISFD              0            10-4 bohr
       FD_USEGROUP          IFDGRP         FULL         [  0]   ***   
       FILE_RECSIZ          IFLREC              4096           words  
       FINITE_PERT          IFIPER              0             x 10-6  
       FIXGEOM              IFIXGM         OFF          [  0]   ***   
       FOCK                 IFOCK          AO           [  1]   ***   
       FREQ_ALGORI          IVIALG         STANDARD     [  0]   ***   
       FROZEN_CORE          IFROCO         ON           [  1]   ***   
       FROZEN_VIRT          IFROVI         OFF          [  0]   ***   
       GAMMA_ABCD           IGABCD         STORE        [  0]   ***   
       GAMMA_ABCI           IGABCI         STORE        [  0]   ***   
       GENBAS_1             IGNBS1              0               ***   
       GENBAS_2             IGNBS2              0               ***   
       GENBAS_3             IGNBS3              0               ***   
       GENBAS_4             IGNBS4              0               ***   
       GEO_CONV             ICONTL              5              H/bohr 
       GEO_MAXCYC           IOPTCY             50               ***   
       GEO_MAXSTEP          IMXSTP            300            millibohr
       GEO_METHOD           INR            SINGLE_POINT [  5]   ***   
       GIAO                 IGIAO          OFF          [  1]   ***   
       GIMIC                IGIMIC         OFF          [  0]   ***   
       GRID                 IGRID          OFF          [  0]   ***   
       GRID_ALGO            IGALGO         SERIAL       [  0]   ***   
       GUESS                IGUESS            MOREAD    [  0]   ***   
       HBAR                 IHBAR              OFF      [  0]   ***   
       HESS_TYPE            IHESTP         SCF          [  0]   ***   
       HF2_FILE             IHF2Fl         USE          [  1]   ***   
       HFSTABILITY          ISTABL         OFF          [  0]   ***   
       INCORE               INCORE             OFF      [  0]   ***   
       INPUT_MRCC           IMRCC          OFF          [  0]   ***   
       INTEGRALS            INTTYP             VMOL     [  1]   ***   
       JODA_PRINT           IJPRNT              0               ***   
       LINDEP_TOL           ILINDP              8               ***   
       LINEQ_CONV           IZTACN          10D-  7           cycles  
       LINEQ_EXPOR          ILMAXD              5               ***   
       LINEQ_MAXCY          ILMAXC             50               ***   
       LINEQ_TYPE           ILTYPE         DIIS         [  1]   ***   
       LOCK_ORBOCC          ILOCOC             OFF      [  0]   ***   
       MEMORY_SIZE          IMEMSZ         *********           words  
       MEM_UNIT             IMEMU          GB           [  3]   ***   
       MRCC                 IMRCCC         OFF          [  0]   ***   
       MULTIPLICTY          IMULTP              4               ***   
       NEGEVAL              IDIE             ABORT      [  0]   ***   
       NEWNORM              INEWNO         OFF          [  0]   ***   
       NON-HF               INONHF              ON      [  1]   ***   
       NTOP_TAMP            ITOPT2             15               ***   
       NUC_MODEL            INUCMO         POINT        [  0]   ***   
       OCCUPATION           IOCCU  A   2,  1,  1,  0,  1,  0,  0,  0,
                                   B   2,  0,  0,  0,  0,  0,  0,  0,
       OPEN-SHELL           IOPEN          SPIN-ORBITAL [  0]   ***   
       ORBITALS             IORBTP         SEMICANONICAL[  1]   ***   
       PARALLEL             IPARAL         ON           [  1]   ***   
       PARA_INT             IPINTS         ON           [  1]   ***   
       PARA_PRINT           IPPRIN              0               ***   
       PERT_ORB             IPTORB         STANDARD     [  0]   ***   
       POINTS               IGRDFD              0               ***   
       PRINT                IPRNT               0               ***   
       PROPS                IPROPS             OFF      [  0]   ***   
       PROP_INTEGR          IINTYP         INTERNAL     [  0]   ***   
       PSI                  IPSI           OFF          [  0]   ***   
       QUARTIC              IQUART         OFF          [  0]   ***   
       RAMAN_INT            IRAMIN         OFF          [  0]   ***   
       RAMAN_ORB            IRAMRE         UNRELAXED    [  0]   ***   
       RDO                  IRDOFM             OFF      [  0]   ***   
       REFERENCE            IREFNC             ROHF     [  2]   ***   
       RELATIVIST           IRELAT         OFF          [  0]   ***   
       RELAX_DENS           IRDENS             OFF      [  0]   ***   
       RESET_FLAGS          IRESET             OFF      [  0]   ***   
       RESTART_CC           ICCRES         OFF          [  0]   ***   
       ROT_EVEC             ROTVEC              0               ***   
       SAVE_INTS            ISVINT              ON      [  1]   ***   
       SCALE_ON             ISTCRT              0               ***   
       SCF_CONV             ISCFCV          10D- 10             ***   
       SCF_DAMPING          IDAMP               0             x 10-3  
       SCF_EXPORDE          IRPPOR              6               ***   
       SCF_EXPSTAR          IRPPLS              5               ***   
       SCF_EXTRAPO          IRPP                ON      [  1]   ***   
       SCF_MAXCYC           ISCFCY            ***              cycles 
       SCF_NOSTOP           ISCFST         OFF          [  0]   ***   
       SCF_PRINT            ISCFPR              0               ***   
       SD_FIELD             IFINSD              0             x 10-6  
       SEQUENCE             ISEQUE         OFF          [  0]   ***   
       SOPERT               IPERSO         OFF          [  0]   ***   
       SPHERICAL            IDFGHI             ON       [  1]   ***   
       SPINORBIT            ISOCAL         OFF          [  0]   ***   
       SPINROTATIO          ISRCON         OFF          [  0]   ***   
       SPIN_FLIP            ISPFLP         OFF          [  0]   ***   
       SPIN_ORBIT           ISPORB         OFF          [  0]   ***   
       SPIN_SCAL            ISCSMP         OFF          [  0]   ***   
       SUBGROUP             ISUBGP         DEFAULT      [  0]   ***   
       SUBGRPAXIS           ISBXYZ         X            [  0]   ***   
       SYMMETRY             ISYM             ON         [  0]   ***   
       SYM_CHECK            ISYMCK         OVERRIDE     [  1]   ***   
       T3_EXTRAPOL          IT3EXT         ON           [  1]   ***   
       TAMP_SUM             IEVERY              5               ***   
       TESTSUITE            ITESTS         OFF          [  0]   ***   
       THERMOCH             ITHERM         OFF          [  0]   ***   
       TOL_CHOLESK          ITOLCH          10D-  4             ***   
       TRANGRAD             IRESRM         OFF          [  0]   ***   
       TRANS_INV            ITRAIN         USE          [  0]   ***   
       TREAT_PERT           ITREAT         SIMULTANEOUS [  0]   ***   
       UIJ_THRESHO          IUIJTH              1               ***   
       UNITS                IUNITS         ANGSTROM     [  0]   ***   
       UNOS                 IUNOS          OFF          [  0]   ***   
       UPDATE_HESS          IHUPDT         ON           [  1]   ***   
       VIBPHASE             ISETPH         STANDARD     [  0]   ***   
       VIBRATION            IVIB              NO        [  0]   ***   
       VIB_ALGORIT          IGEALG         STANDARD     [  0]   ***   
       VNATORB              IVNORB         OFF          [  0]   ***   
       VTRAN                IVTRAN         FULL/PARTIAL [  0]   ***   
       XFIELD               IXEFLD              0             x 10-6  
       XFORM_TOL            IXFTOL          10D- 18             ***   
       YFIELD               IYEFLD              0             x 10-6  
       ZFIELD               IZEFLD              0             x 10-6  
    -------------------------------------------------------------------
   1 entries found in Z-matrix 
   Job Title : TITLE                                                                           
  1  N          7    14.00307
 factor:   60.1997200000000     
   Rotational constants (in cm-1): 

   Rotational constants (in MHz): 

********************************************************************************
   The full molecular point group is I h .
   The largest Abelian subgroup of the full molecular point group is D2h .
   The computational point group is D2h .
********************************************************************************
  @GTFLGS-W, Keyword #DROPMO not known and is ignored.
  @GTFLGS-W, Keyword #SCF_DAMPING not known and is ignored.
  There is   1 frozen-core orbital.
  There is   1 frozen-core orbital.
  There are   23 basis functions.
 @GEOPT-W, Archive file not created for single-point calculation.
  @CHECKOUT-I, Total execution time (CPU/WALL):        0.11/       1.48 seconds.
--executable xjoda finished with status     0 in        1.55 seconds (walltime).
 --invoking executable--
/home/nike/cfour_v2.00beta/bin/xvmol
 Serial version of molecule started
********************************************************************************
                    Input from MOL file
********************************************************************************
INTGRL        1    0    1    0    0    0    0    0    0                         
         *** CFOUR Program System (Release V0.1) ***                            
TITLE                                                                           
    1    3 X  Y   Z   0.10E-08              0    0                              
   9999.00      3.00                                                            
          7.00000000    1    3    1    1    1                                   
N #1   0.000000000000000   0.000000000000000   0.000000000000000                
   10    4                                                                      
   9046.00000000000       7.000000000000000E-004 -1.530000000000000E-004        
  0.000000000000000E+000  0.000000000000000E+000                                
   1357.00000000000       5.389000000000000E-003 -1.208000000000000E-003        
  0.000000000000000E+000  0.000000000000000E+000                                
   309.300000000000       2.740600000000000E-002 -5.992000000000000E-003        
  0.000000000000000E+000  0.000000000000000E+000                                
   87.7300000000000       0.103207000000000      -2.454400000000000E-002        
  0.000000000000000E+000  0.000000000000000E+000                                
   28.5600000000000       0.278723000000000      -6.745900000000001E-002        
  0.000000000000000E+000  0.000000000000000E+000                                
   10.2100000000000       0.448540000000000      -0.158078000000000             
  0.000000000000000E+000  0.000000000000000E+000                                
   3.83800000000000       0.278238000000000      -0.121831000000000             
  0.000000000000000E+000  0.000000000000000E+000                                
  0.746600000000000       1.544000000000000E-002  0.549003000000000             
  0.000000000000000E+000  0.000000000000000E+000                                
  0.224800000000000      -2.864000000000000E-003  0.578815000000000             
   1.00000000000000       0.000000000000000E+000                                
  6.124000000000000E-002  0.000000000000000E+000  0.000000000000000E+000        
  0.000000000000000E+000   1.00000000000000                                     
    5    3                                                                      
   13.5500000000000       3.991900000000000E-002  0.000000000000000E+000        
  0.000000000000000E+000                                                        
   2.91700000000000       0.217169000000000       0.000000000000000E+000        
  0.000000000000000E+000                                                        
  0.797300000000000       0.510319000000000       0.000000000000000E+000        
  0.000000000000000E+000                                                        
  0.218500000000000       0.462214000000000        1.00000000000000             
  0.000000000000000E+000                                                        
  5.611000000000000E-002  0.000000000000000E+000  0.000000000000000E+000        
   1.00000000000000                                                             
    2    2                                                                      
  0.817000000000000        1.00000000000000       0.000000000000000E+000        
  0.230000000000000       0.000000000000000E+000   1.00000000000000             
FINISH                                                                          
 
********************************************************************************
 One- and two-electron integrals over symmetry-adapted AOs are calculated.

  Spherical harmonics are used.
  
  Integrals less than  0.10E-13 are neglected.

  Nuclear repulsion energy :    0.0000000000 a.u.
  required memory for a1 array                5020257  words 
  required memory for a2 array                2070308  words 
 @GETMEM-I,  Allocated      69 MB of main memory.
  @MOLECU-I, One electron integrals (CPU/WALL):        0.01/       0.02 seconds.
  @TWOEL-I,        379 integrals of symmetry type  I I I I
  @TWOEL-I,       1506 integrals of symmetry type  I J I J
  @TWOEL-I,       1161 integrals of symmetry type  I I J J
  @TWOEL-I,       1760 integrals of symmetry type  I J K L
  @TWOEL-I, Total number of 2-e integrals       4806.
  @MOLECU-I, Two electron integrals (CPU/WALL):        0.00/       0.01 seconds.
  @CHECKOUT-I, Total execution time (CPU/WALL):        0.02/       0.05 seconds.
--executable xvmol finished with status     0 in        0.08 seconds (walltime).
 --invoking executable--
/home/nike/cfour_v2.00beta/bin/xvmol2ja
 @GETMEM-I,  Allocated   30517 MB of main memory.
  @CHECKOUT-I, Total execution time (CPU/WALL):        0.00/       0.01 seconds.
--executable xvmol2ja finished with status     0 in        0.03 seconds (walltime).
 --invoking executable--
/home/nike/cfour_v2.00beta/bin/xvscf
  There are   23 functions in the AO basis.

  There are 8 irreducible representations.

       Irrep        # of functions
         1                  8
         2                  3
         3                  3
         4                  2
         5                  3
         6                  2
         7                  2
         8                  0


  Parameters for SCF calculation: 
        SCF reference function: ROHF  
  Maximum number of iterations: 9999
     Full symmetry point group: I h 
     Computational point group: D2h 
        Initial density matrix: MOREAD                 
     SCF convergence tolerance: 10**(-10)
  DIIS convergence acceleration:  ON
          Latest start for DIIS:   5
                     DIIS order:   6

     Alpha population by irrep:   2    1    1    0    1    0    0    0
      Beta population by irrep:   2    0    0    0    0    0    0    0


  Memory information:      62860 words required.
  Fock matrices are constructed from AO integral file.
 @GETMEM-I,  Allocated       0 MB of main memory.
  Initialization and symmetry analysis required      0.001 seconds.

 total no. of electrons in initial guess :  0.000000000000000E+000
 total no. of electrons in initial guess :  0.000000000000000E+000
  --------------------------------------------------------------------
  Iteration         Total Energy            Largest Density Difference
  --------------------------------------------------------------------
       0             0.000000000000000              0.0000000000D+00
   current occupation vector 
     2  1  1  0  1  0  0  0
     2  0  0  0  0  0  0  0
       1           -52.642721023154110              0.5080043740D+01
   current occupation vector 
     2  1  1  0  1  0  0  0
     2  0  0  0  0  0  0  0
       2           -52.337558410007745              0.4187643151D+01
   current occupation vector 
     2  1  1  0  1  0  0  0
     2  0  0  0  0  0  0  0
       3           -54.104041784547221              0.1569815444D+01
   current occupation vector 
     2  1  1  0  1  0  0  0
     2  0  0  0  0  0  0  0
       4           -53.962664761922937              0.1261043923D+01
   current occupation vector 
     2  1  1  0  1  0  0  0
     2  0  0  0  0  0  0  0
       5           -54.355792610760624              0.6433736023D+00
   current occupation vector 
     2  1  1  0  1  0  0  0
     2  0  0  0  0  0  0  0
       6           -54.384246678637091              0.3348472477D+00
   current occupation vector 
     2  1  1  0  1  0  0  0
     2  0  0  0  0  0  0  0
       7           -54.389635958228219              0.9068409795D-01
   current occupation vector 
     2  1  1  0  1  0  0  0
     2  0  0  0  0  0  0  0
       8           -54.389846209047576              0.2775272143D-01
   current occupation vector 
     2  1  1  0  1  0  0  0
     2  0  0  0  0  0  0  0
       9           -54.389860580447717              0.7465389329D-02
   current occupation vector 
     2  1  1  0  1  0  0  0
     2  0  0  0  0  0  0  0
      10           -54.389870727736316              0.2944719123D-02
   current occupation vector 
     2  1  1  0  1  0  0  0
     2  0  0  0  0  0  0  0
      11           -54.389870729081956              0.3300310970D-04
   current occupation vector 
     2  1  1  0  1  0  0  0
     2  0  0  0  0  0  0  0
      12           -54.389870729086290              0.1933688683D-05
   current occupation vector 
     2  1  1  0  1  0  0  0
     2  0  0  0  0  0  0  0
      13           -54.389870729086304              0.7265673461D-07
   current occupation vector 
     2  1  1  0  1  0  0  0
     2  0  0  0  0  0  0  0
      14           -54.389870729086269              0.3824897066D-09
   current occupation vector 
     2  1  1  0  1  0  0  0
     2  0  0  0  0  0  0  0

  SCF has converged.

 Density matrix saved to file den.dat
 total alpha spin electron number:   5.00000000000000     
 total  beta spin electron number:   2.00000000000000     
     E(ROHF)=       -54.389870729086276              0.4667127795D-11

  Eigenvector printing suppressed.


       The average multiplicity is    4.0000000
  The expectation value of S**2 is    3.7500000

 @PUTMOS-I, Writing converged MOs to NEWMOS. 
 @PUTMOS-I, Symmetry   1 Full Blocks  2 Partial Blocksize   0
 @PUTMOS-I, Symmetry   2 Full Blocks  0 Partial Blocksize   3
 @PUTMOS-I, Symmetry   3 Full Blocks  0 Partial Blocksize   3
 @PUTMOS-I, Symmetry   4 Full Blocks  0 Partial Blocksize   2
 @PUTMOS-I, Symmetry   5 Full Blocks  0 Partial Blocksize   3
 @PUTMOS-I, Symmetry   6 Full Blocks  0 Partial Blocksize   2
 @PUTMOS-I, Symmetry   7 Full Blocks  0 Partial Blocksize   2
 @PUTMOS-I, Symmetry   8 Full Blocks  0 Partial Blocksize   0
  @DMPJOB-I, Rotating orbitals to semicanonical basis.
             *** Eigenvalues correspond to new basis. ***



 
  ORBITAL EIGENVALUES (ALPHA)  (1H = 27.2113838 eV)

       MO #        E(hartree)               E(eV)           FULLSYM    COMPSYM
       ----   --------------------   --------------------   -------   ---------
    1     1         -15.6801791216        -426.6793724389      Ag        Ag (1)
    2     2          -1.1537218224         -31.3943673315      Ag        Ag (1)
    3     9          -0.5675554163         -15.4439682705     T1u       B2u (2)
    4    17          -0.5675554163         -15.4439682705     T1u       B1u (5)
    5    12          -0.5675554163         -15.4439682705     T1u       B3u (3)
  +++++++++++++++++++++++++++++++++++++++++++++++++++++++++++++++++++++++++++++
    6     3           0.1389665162           3.7814712115      Ag        Ag (1)
    7    10           0.1558689507           4.2414098429     T1u       B2u (2)
    8    13           0.1558689507           4.2414098429     T1u       B3u (3)
    9    18           0.1558689507           4.2414098429     T1u       B1u (5)
   10    20           0.6504409094          17.6993972371      Hg       B3g (6)
   11     4           0.6504409094          17.6993972371      Hg        Ag (1)
   12    15           0.6504409094          17.6993972371      Hg       B1g (4)
   13    22           0.6504409094          17.6993972371      Hg       B2g (7)
   14     5           0.6504409094          17.6993972371      Hg        Ag (1)
   15    14           1.0316507231          28.0726437953     T1u       B2u (3)
   16    11           1.0316507231          28.0726437953     T1u       B3u (2)
   17    19           1.0316507231          28.0726437953     T1u       B1u (5)
   18     6           1.2947416531          35.2317120707      Ag        Ag (1)
   19     7           2.3833918417          64.8553901972      Hg        Ag (1)
   20     8           2.3833918417          64.8553901972      Hg        Ag (1)
   21    16           2.3833918417          64.8553901972      Hg       B1g (4)
   22    23           2.3833918417          64.8553901972      Hg       B2g (7)
   23    21           2.3833918417          64.8553901972      Hg       B3g (6)


 
  ORBITAL EIGENVALUES ( BETA)  (1H = 27.2113838 eV)

       MO #        E(hartree)               E(eV)           FULLSYM    COMPSYM
       ----   --------------------   --------------------   -------   ---------
    1     1         -15.5946944057        -424.3532150218      Ag        Ag (1)
    2     2          -0.7433658656         -20.2280138860      Ag        Ag (1)
  +++++++++++++++++++++++++++++++++++++++++++++++++++++++++++++++++++++++++++++
    3    12           0.0833271396           2.2674467795     T1u       B3u (3)
    4    17           0.0833271396           2.2674467795     T1u       B1u (5)
    5     9           0.0833271396           2.2674467795     T1u       B2u (2)
    6     3           0.1620803392           4.4104303204      Ag        Ag (1)
    7    13           0.2620928900           7.1319102267     T1u       B3u (3)
    8    18           0.2620928900           7.1319102267     T1u       B1u (5)
    9    10           0.2620928900           7.1319102267     T1u       B2u (2)
   10    20           0.7167792252          19.5045546121      Hg       B3g (6)
   11    15           0.7167792252          19.5045546121      Hg       B1g (4)
   12     4           0.7167792252          19.5045546121      Hg        Ag (1)
   13    22           0.7167792252          19.5045546121      Hg       B2g (7)
   14     5           0.7167792252          19.5045546121      Hg        Ag (1)
   15    19           1.2169760365          33.1156020274     T1u       B1u (5)
   16    14           1.2169760365          33.1156020274     T1u       B3u (3)
   17    11           1.2169760365          33.1156020274     T1u       B2u (2)
   18     6           1.4023885915          38.1609342284      Ag        Ag (1)
   19    16           2.5584212518          69.6181826550      Hg        Ag (4)
   20     7           2.5584212518          69.6181826550      Hg       B1g (1)
   21    23           2.5584212518          69.6181826550      Hg       B2g (7)
   22     8           2.5584212518          69.6181826550      Hg        Ag (1)
   23    21           2.5584212518          69.6181826550      Hg       B3g (6)


  VSCF finished.

  @CHECKOUT-I, Total execution time (CPU/WALL):        0.02/       0.53 seconds.
--executable xvscf finished with status     0 in        0.56 seconds (walltime).
 --invoking executable--
/home/nike/cfour_v2.00beta/bin/xvtran
 @GETMEM-I,  Allocated   30517 MB of main memory.
  Full UHF integral transformation
  The following   1 alpha MOs will be dropped.
    1
  There are  22 active alpha molecular orbitals.
  The following   1 beta MOs will be dropped.
    1
  There are  22 active beta molecular orbitals.
  Transformation of IIII integrals :
  2 passes through the AO integral file were required.
         379 AO integrals were read.
         487 MO integrals (Spin case AAAA) were written to HF2AA.
         487 MO integrals (Spin case BBBB) were written to HF2BB.
         919 MO integrals (Spin case AABB) were written to HF2AB.
  Transformation of IIJJ integrals :
  2 passes through the AO integral file were required.
        1161 AO integrals were read.
        1053 MO integrals (Spin case AAAA) were written to HF2AA.
        1053 MO integrals (Spin case BBBB) were written to HF2BB.
        2106 MO integrals (Spin case AABB) were written to HF2AB.
  Transformation of IJIJ integrals :
  2 passes through the AO integral file were required.
        1506 AO integrals were read.
        1362 MO integrals (Spin case AAAA) were written to HF2AA.
        1362 MO integrals (Spin case BBBB) were written to HF2BB.
        2526 MO integrals (Spin case AABB) were written to HF2AB.
  Transformation of IJKL integrals :
  2 passes through the AO integral file were required.
        1760 AO integrals were read.
        1626 MO integrals (Spin case AAAA) were written to HF2AA.
        1626 MO integrals (Spin case BBBB) were written to HF2BB.
        3252 MO integrals (Spin case AABB) were written to HF2AB.
  Summary of active molecular orbitals: 
------------------------------------------------------------------------
                         * Spin case alpha *
 
  Index      Eigenvalue    Symmetry    Index      Eigenvalue    Symmetry
------------------------------------------------------------------------
     1        -1.1537218        1        12         1.0316507        2
     2        -0.5675554        2        13         0.1558690        3
     3        -0.5675554        3        14         1.0316507        3
     4        -0.5675554        5        15         0.6504409        4
     5         0.1389665        1        16         2.3833918        4
     6         0.6504409        1        17         0.1558690        5
     7         0.6504409        1        18         1.0316507        5
     8         1.2947417        1        19         0.6504409        6
     9         2.3833918        1        20         2.3833918        6
    10         2.3833918        1        21         0.6504409        7
    11         0.1558690        2        22         2.3833918        7
------------------------------------------------------------------------
------------------------------------------------------------------------
                         * Spin case beta *
 
  Index      Eigenvalue    Symmetry    Index      Eigenvalue    Symmetry
------------------------------------------------------------------------
     1        -0.7433659        1        12         0.2620929        3
     2         0.1620803        1        13         1.2169760        3
     3         0.7167792        1        14         0.7167792        4
     4         0.7167792        1        15         2.5584213        4
     5         1.4023886        1        16         0.0833271        5
     6         2.5584213        1        17         0.2620929        5
     7         2.5584213        1        18         1.2169760        5
     8         0.0833271        2        19         0.7167792        6
     9         0.2620929        2        20         2.5584213        6
    10         1.2169760        2        21         0.7167792        7
    11         0.0833271        3        22         2.5584213        7
------------------------------------------------------------------------
  @CHECKOUT-I, Total execution time (CPU/WALL):        0.02/       2.61 seconds.
--executable xvtran finished with status     0 in        2.65 seconds (walltime).
 --invoking executable--
/home/nike/cfour_v2.00beta/bin/xintprc
 @GETMEM-I,  Allocated   30517 MB of main memory.
  Processing integrals for CCSD calculation.
  @GMOIAA-I, Processing MO integrals for spin case AA.
  @GMOIAA-I, Generation of integral list completed.
                      TYPE                NUMBER
                      ----               --------
                      PPPP                  2118
                      PPPH                  1620
                      PPHH                   396
                      PHPH                   276
                      PHHH                   102
                      HHHH                    16

                     TOTAL                  4528
  @GMOIAA-I, Processing MO integrals for spin case BB.
  @GMOIAA-I, Generation of integral list completed.
                      TYPE                NUMBER
                      ----               --------
                      PPPP                  3717
                      PPPH                   708
                      PPHH                    48
                      PHPH                    48
                      PHHH                     6
                      HHHH                     1

                     TOTAL                  4528
  @GMOIAB-I, Processing MO integrals for spin case AB.
                      TYPE                NUMBER
                      ----               --------
                      PPPP                  5388
                      PPPH1H                2214
                      PPPH2H                 534
                      PPHH                   216
                      PHPH1P                  39
                      PHPH2P                 357
                      PHHH1P                  12
                      PHHH2P                  39
                      HHHH                     4

                     TOTAL                  8803
            ----------------------------------------------
                     Projected spin multiplicities: 
            ----------------------------------------------
             <0|S^2|0>                  =    3.7500000000.
             <0|S^2 T2|0>               =    0.0000000000.
             Projected <0|S^2 exp(T)|0> =    3.7500000000.
             Approximate spin mult.     =    4.0000000000.
            ----------------------------------------------
   Largest T2 amplitudes for spin case AA:
   i   j   a   b             i   j   a   b             i   j   a   b
-----------------------------------------------------------------------------
[  3   2  14  12]-0.02482 [  4   3  18  14]-0.02482 [  4   2  18  12]-0.02482
[  3   2  15   7]-0.01531 [  3   2  16   9]-0.01462 [  2   1  12   8]-0.01373
[  4   1  18   8]-0.01373 [  3   1  14   8]-0.01373 [  4   2  19   6] 0.01340
[  4   3  21   6] 0.01312 [  4   3  22  10] 0.01281 [  4   2  17  12]-0.01274
[  3   2  13  12]-0.01274 [  4   3  17  14]-0.01274 [  4   3  18  13]-0.01274
-----------------------------------------------------------------------------
   Norm of T2AA vector (      120 symmetry allowed elements):  0.0819102084.
-----------------------------------------------------------------------------
   Largest T2 amplitudes for spin case AB:
       _       _                 _       _                 _       _
   i   j   a   b             i   j   a   b             i   j   a   b
-----------------------------------------------------------------------------
[  2   1  12   5]-0.02405 [  3   1  14   5]-0.02405 [  4   1  18   5]-0.02405
[  4   1  10  17]-0.01992 [  4   1   6  17] 0.01914 [  1   1   8   5]-0.01764
[  4   1   6  16] 0.01748 [  2   1   9   9]-0.01745 [  2   1  16  12]-0.01726
[  4   1  22  12]-0.01726 [  2   1  20  17]-0.01726 [  3   1  22  17]-0.01726
[  3   1  16   9]-0.01726 [  4   1  20   9]-0.01726 [  3   1   9  12] 0.01706
-----------------------------------------------------------------------------
   Norm of T2AB vector (      216 symmetry allowed elements):  0.1272204357.
-----------------------------------------------------------------------------
  @CHECKOUT-I, Total execution time (CPU/WALL):        0.02/       1.58 seconds.
--executable xintprc finished with status     0 in        1.96 seconds (walltime).
 --invoking executable--
/home/nike/cfour_v2.00beta/bin/xint
 @GETMEM-I,  Allocated   30517 MB of main memory.
  @CHECKOUT-I, Total execution time (CPU/WALL):        0.03/       0.09 seconds.
--executable xint finished with status     0 in        0.83 seconds (walltime).
 --invoking executable--
/home/nike/MRCC/dmrcc
 **********************************************************************
                          MRCC program system
 **********************************************************************
 
                              Written by
    Mihaly Kallay, Zoltan Rolik, Jozsef Csontos, Istvan Ladjanszki,
       Lorant Szegedy, Bence Ladoczki, Gyula Samu, Klara Petrov,
        Mate Farkas, Peter Nagy, David Mester, and Bence Hegely
 
        Department of Physical Chemistry and Materials Science
            Budapest University of Technology and Economics
                  Budapest P.O.Box 91, H-1521 Hungary
 
                              www.mrcc.hu

 ************************ 2018-06-30 18:06:04 *************************
 Executing minp...

 Reading input from MINP...
 
 Input file:
 
# N 2Z
basis=aVDZ-EMSL
iface=cfour
uncontract=off
calc=CC(5)
mem=20GB
core=1
itol=18
scftol=13
cctol=7
ccmaxit=999
scfmaxit=9999
scfiguess=ao
scftype=ROHF
rohftype=semicanonical
rest=2
charge=+0
refdet=serialno
1,2
3,4,5

symm=5
mult=4
#occ=3,0,0,0,0,1,0,0/1,0,0,0,0,1,0,0
geom
N

#Li 1 R

#R=3.065

#unit=angstroms

tprint=0.01
verbosity=3
nstate=4

 
 
 Checking keyword combinations...
 
 Keywords:
 
 active=none
 agrid=ld0006-ld0590
 basis=avdz-emsl
 basopt=off
 bpcompo=0.985
 bpcompv=0.98
 bpdfo=0.985
 bpocc=0.985
 bppdo=0.985
 bppdv=0.98
 bpedo=0.985
 bpedv=0.98
 calc=cc(5)
 ccmaxit=999
 ccprog=mrcc
 cctol=7
 charge=+0
 cialg=disk
 ciguess=off
 cmpgrp=auto
 core=1
 corembed=off
 dboc=off
 dendec=cholesky
 dens=0
 dfalg=invsqrt
 dfbasis_cor=none
 dfbasis_scf=none
 dfintran=ovirt
 dft=off
 diag=david
 domrad=10.d0
 drpaalg=fit
 ecp=auto
 edisp=off
 embed=off
 epert=none
 eps=0.975
 excrad=0.d0
 excrad_fin=0.000000000D+00
 freq=off
 gauss=spher
 geom=zmat
 gopt=off
 ghost=none
 gtol=7
 grtol=10
 hamilton=dc
 iface=cfour
 intalg=auto
 itol=18
 lcorthr=loose
 lccrest=off
 lmp2dens=on
 lnoepso=3e-5
 lnoepsv=1e-6
 localcc=off
 locintrf=disk
 maxact=off
 maxex=0
 bfbasis=none
 mem=20gb
 molden=on
 mulmet=0
 mult=4
 nacto=0
 nactv=0
 naf_cor=off
 naf_scf=off
 nafalg=albe
 naftyp=
 nchol=auto
 ndeps=1e-3
 nstate=4
 nsing=0
 ntrip=0
 occ=
 optalg=
 optmaxit=50
 optetol=1e-6
 optgtol=1e-4
 optstol=1e-3
 orblocc=off
 orbloco=off
 orblocv=off
 osveps=1e-3
 ovirt=off
 ovosnorb=80.0
 ptfreq=0.0
 popul=off
 pressure=100000
 qmmm=off
 refdet=serialno
 rest=2
 rgrid=log3
 rohftype=semicanonical
 scspe=1.d0
 scsps=1.2d0
 scspt=0.33333333333333
 scfalg=auto
 scfdamp=off
 scfdiis=on
 scfdiis_end=9999
 scfdiis_start=1
 scfdiis_step=1
 scfdtol=17
 scfext=10
 scfiguess=ao
 scflshift=off
 scfmaxit=9999
 scftype=rohf
 scftol=13
 spairtol=1e-4
 symm=5
 talg=occ
 temp=298.15
 test=off
 tprint=0.01
 uncontract=off
 unit=angs
 verbosity=3
 wpairtol=0.100000000E-05

 ************************ 2018-06-30 18:06:05 *************************
 Executing goldstone...

 Generation of CC equations in terms of H and T...
 Generation of antisymmetrized Goldstone diagrams...
 Number of diagrams in T^1 equations:    15
 Number of diagrams in T^2 equations:    38
 Number of diagrams in T^3 equations:    54
 Number of diagrams in T^4 equations:    80
 Number of diagrams in T^5 equations:    99
 Translation of diagrams to factorized equations...
 Optimizing intermediate calculation...
 Optimizing right-hand EOMCC calculation...
 Number of floating-point operations per iteration step:   5.5097E+08
 Probable CPU time per iteration step (hours):      0.01
 Required memory (Mbytes):      19.5
 Number of intermediates:                                 348
 Number of intermediates to be stored:                    133
 Length of intermediate file (Mbytes):      28.4

 ************************ 2018-06-30 18:06:15 *************************
 Executing xmrcc...

 **********************************************************************
 CC(                     5 ) calculation 
 
 
 Allocation of 100.0 Mbytes of memory...
 Number of spinorbitals:                    44
 Number of alpha electrons:                        5
 Number of beta electrons:                         2
 z-component of spin:  1.5
 Spatial symmetry:                      5
 Convergence criterion:  1.0E-07
 Spatial symmetry of ground state:                      7
 Construction of occupation graphs...
 Number of                     0 -fold excitations:                      0
 Number of                     1 -fold excitations:                     18
 Number of                     2 -fold excitations:                    617
 Number of                     3 -fold excitations:                   9638
 Number of                     4 -fold excitations:                  67804
 Number of                     5 -fold excitations:                 221690
 Total number of configurations:                 299767
 Number of ground state excitations: 
 Number of                     0 -fold excitations:                      1
 Number of                     1 -fold excitations:                     24
 Number of                     2 -fold excitations:                    672
 Number of                     3 -fold excitations:                   9697
 Number of                     4 -fold excitations:                  67962
 Number of                     5 -fold excitations:                 222108
 Total number of configurations:                 300464
 Calculation of coupling coefficients...
 Length of intermediate file (Mbytes):      66.1
 
 ======================================================================
 
 ======================================================================
 
 ======================================================================
 
 ======================================================================
 
 Memory requirements /Mbyte/: 
               Minimal        Optimal
 Real*8:        198.4128       198.4129
 Integer:         9.5320
 Total:         207.9448       207.9449
 

 ************************ 2018-06-30 18:06:22 *************************
 Executing goldstone...

 Generation of CC equations in terms of H and T...
 Generation of antisymmetrized Goldstone diagrams...
 Number of diagrams in T^1 equations:     8
 Translation of diagrams to factorized equations...
 Optimizing intermediate calculation...
 Optimizing right-hand EOMCC calculation...
 Number of floating-point operations per iteration step:   4.1332E+02
 Probable CPU time per iteration step (hours):      0.00
 Required memory (Mbytes):      19.5
 Number of intermediates:                                  19
 Number of intermediates to be stored:                      9
 Length of intermediate file (Mbytes):       0.0

 ************************ 2018-06-30 18:06:22 *************************
 Executing xmrcc...

 **********************************************************************
 CC(                     1 ) calculation 
 
 
 Allocation of 100.0 Mbytes of memory...
 Number of spinorbitals:                    44
 Number of alpha electrons:                        5
 Number of beta electrons:                         2
 z-component of spin:  1.5
 Spatial symmetry:                      5
 Convergence criterion:  1.0E-07
 Spatial symmetry of ground state:                      7
 Construction of occupation graphs...
 Number of                     0 -fold excitations:                      0
 Number of                     1 -fold excitations:                     18
 Total number of configurations:                     18
 Number of ground state excitations: 
 Number of                     0 -fold excitations:                      1
 Number of                     1 -fold excitations:                     24
 Total number of configurations:                     25
 Calculation of coupling coefficients...
 Length of intermediate file (Mbytes):       0.1
 
 ======================================================================
 
 ======================================================================
 
 ======================================================================
 
 ======================================================================
 
 Memory requirements /Mbyte/: 
               Minimal        Optimal
 Real*8:          0.0886         1.7985
 Integer:         3.2873
 Total:           3.3759         5.0858
 

 ************************ 2018-06-30 18:06:22 *************************
 Executing mrcc...

 **********************************************************************
 LR-CCS calculation                                                     
 
 
 OpenMP parallel version is running.
 Number of CPUs:  20
 Allocation of    1.8 Mbytes of memory...
 Number of spinorbitals:  44
 Number of alpha electrons:  5
 Number of beta  electrons:  2
 z-component of spin:  1.5
 Spatial symmetry: 5
 Convergence criterion:  1.0E-07
 Spatial symmetry of ground state:                      7
 Construction of occupation graphs...
 Number of excitations for irrep 1: 
 Number of 0-fold excitations: 1
 Number of 1-fold excitations: 24
 Total number of determinants: 25
 Number of excitations for irrep 3: 
 Number of 0-fold excitations: 0
 Number of 1-fold excitations: 18
 Total number of determinants: 18
 Calculation of coupling coefficients...
 Initial cluster amplitudes are generated.
 Length of intermediate file (Mbytes):       0.1
 Reading integral list from unit 55...
 Sorting integrals...
 Sorting integrals...
 Sorting integrals...
 Sorting integrals...
 Energy of reference determinant [au]:     -53.936685707890
 Calculation of diagonal elements of Hamiltonian...
 Calculation of MP denominators...
 
 Starting CC iteration...
 ======================================================================
 Norm of residual vector:     0.16179213
 CPU time [min]:     0.044                   Wall time [min]:     0.002
 
 Iteration  1  CC energy:   -53.96623725  Energy decrease:   0.02955155
 ======================================================================
 Norm of residual vector:     0.03177954
 CPU time [min]:     0.044                   Wall time [min]:     0.002
 
 Iteration  2  CC energy:   -53.96789094  Energy decrease:   0.00165369
 ======================================================================
 Norm of residual vector:     0.00569089
 CPU time [min]:     0.045                   Wall time [min]:     0.002
 
 Iteration  3  CC energy:   -53.96893817  Energy decrease:   0.00104723
 ======================================================================
 Norm of residual vector:     0.00067825
 CPU time [min]:     0.045                   Wall time [min]:     0.002
 
 Iteration  4  CC energy:   -53.96883396  Energy decrease:   0.00010421
 ======================================================================
 Norm of residual vector:     0.00014079
 CPU time [min]:     0.046                   Wall time [min]:     0.002
 
 Iteration  5  CC energy:   -53.96886834  Energy decrease:   0.00003438
 ======================================================================
 Norm of residual vector:     0.00004693
 CPU time [min]:     0.046                   Wall time [min]:     0.003
 
 Iteration  6  CC energy:   -53.96885769  Energy decrease:   0.00001065
 ======================================================================
 Norm of residual vector:     0.00001751
 CPU time [min]:     0.046                   Wall time [min]:     0.003
 
 Iteration  7  CC energy:   -53.96886170  Energy decrease:   0.00000400
 ======================================================================
 Norm of residual vector:     0.00000164
 CPU time [min]:     0.047                   Wall time [min]:     0.003
 
 Iteration  8  CC energy:   -53.96886138  Energy decrease:   0.00000032
 ======================================================================
 Norm of residual vector:     0.00000011
 CPU time [min]:     0.047                   Wall time [min]:     0.003
 
 Iteration  9  CC energy:   -53.96886138  Energy decrease:   0.00000001
 ======================================================================
 Norm of residual vector:     0.00000003
 CPU time [min]:     0.048                   Wall time [min]:     0.003
 
 Iteration 10  CC energy:   -53.96886139  Energy decrease:   0.00000001
 ======================================================================
 
 Iteration has converged in 10 steps.
 
 Final results:
 Total CCS energy [au]:              -53.968861390949
 Spin multiplicity:                     2
 
 
 
 Dominant cluster amplitudes
 Printing threshold:  1.00E-02
 
    1.000000  Reference determinant                                     
    0.102861  1b -> 5b                                                  
    0.010110  1b -> 11b                                                 
   -0.015456  1b -> 13b                                                 
   -0.033854  1b -> 17b                                                 
   -0.096792  2b -> 6b                                                  
    0.013929  2b -> 14b                                                 
    0.013143  1a -> 17a                                                 
   -0.011115  5a -> 11a                                                 
    0.018456  5a -> 13a                                                 
    0.021703  5a -> 17a                                                 
   -0.112981  2a -> 6a                                                  
   -0.019628  2a -> 14a                                                 
   -0.113797  4a -> 7a                                                  
   -0.023703  4a -> 15a                                                 
   -0.113797  3a -> 8a                                                  
   -0.023703  3a -> 16a                                                 
 
 Starting right-hand LR-CC iteration for root                      2 ...
 ======================================================================
 Norm of residual vector:     0.06900999      Convergence:   1.00000000
 CPU time [min]:     0.049                   Wall time [min]:     0.003
 
 Iteration  1  CI energy:   -53.96939247  Energy decrease:   0.00053108
 ======================================================================
 Norm of residual vector:     0.01162396      Convergence:   0.07916155
 CPU time [min]:     0.056                   Wall time [min]:     0.003
 
 Iteration  2  CI energy:   -53.97456277  Energy decrease:   0.00517031
 ======================================================================
 Norm of residual vector:     0.00097537      Convergence:   0.00862052
 CPU time [min]:     0.057                   Wall time [min]:     0.003
 
 Iteration  3  CI energy:   -53.97464984  Energy decrease:   0.00008707
 ======================================================================
 Norm of residual vector:     0.00006155      Convergence:   0.00121159
 CPU time [min]:     0.057                   Wall time [min]:     0.003
 
 Iteration  4  CI energy:   -53.97465114  Energy decrease:   0.00000129
 ======================================================================
 Norm of residual vector:     0.00000265      Convergence:   0.00005184
 CPU time [min]:     0.058                   Wall time [min]:     0.003
 
 Iteration  5  CI energy:   -53.97465114  Energy decrease:   3.6082E-09
 ======================================================================
 Norm of residual vector:     0.00000021      Convergence:   0.00000334
 CPU time [min]:     0.059                   Wall time [min]:     0.003
 
 Iteration  6  CI energy:   -53.97465113  Energy decrease:   0.00000001
 ======================================================================
 Norm of residual vector:     0.0000E+00      Convergence:   2.2445E-07
 CPU time [min]:     0.059                   Wall time [min]:     0.003
 
 Iteration  7  CI energy:   -53.97465113  Energy decrease:   6.9965E-10
 ======================================================================
 
 Iteration has converged in  7 steps.
 
 Final results:
 Total LR-CCS energy [au]:           -53.974651131069
 Excitation energy [eV]:          -0.1575
 Excitation energy [cm^-1]:    -1270.70
 Absorption wavelength [nm]:   -7869.67
 Spin multiplicity:                     2
 
 
 
 Dominant CI coefficients
 Printing threshold:  1.00E-02
 
    0.045746  1b -> 4b                                                  
    0.031574  1b -> 7b                                                  
   -0.036921  2b -> 10b                                                 
    0.014510  4a -> 13a                                                 
   -0.011722  1a -> 15a                                                 
    0.996741  5a -> 7a                                                  
   -0.033296  5a -> 15a                                                 
   -0.014113  2a -> 10a                                                 
   -0.014444  3a -> 12a                                                 
 
 Starting right-hand LR-CC iteration for root                      3 ...
 ======================================================================
 Norm of residual vector:     0.12140840      Convergence:   1.00000000
 CPU time [min]:     0.060                   Wall time [min]:     0.003
 
 Iteration  1  CI energy:   -53.52572641  Energy decrease:   0.44313498
 ======================================================================
 Norm of residual vector:     0.03424780      Convergence:   0.35280805
 CPU time [min]:     0.067                   Wall time [min]:     0.004
 
 Iteration  2  CI energy:   -53.55069168  Energy decrease:   0.02496527
 ======================================================================
 Norm of residual vector:     0.00482016      Convergence:   0.03470329
 CPU time [min]:     0.068                   Wall time [min]:     0.004
 
 Iteration  3  CI energy:   -53.55156308  Energy decrease:   0.00087140
 ======================================================================
 Norm of residual vector:     0.00111869      Convergence:   0.01073792
 CPU time [min]:     0.068                   Wall time [min]:     0.004
 
 Iteration  4  CI energy:   -53.55161369  Energy decrease:   0.00005062
 ======================================================================
 Norm of residual vector:     0.00009298      Convergence:   0.00176838
 CPU time [min]:     0.069                   Wall time [min]:     0.004
 
 Iteration  5  CI energy:   -53.55160615  Energy decrease:   0.00000754
 ======================================================================
 Norm of residual vector:     0.00000572      Convergence:   0.00010899
 CPU time [min]:     0.070                   Wall time [min]:     0.004
 
 Iteration  6  CI energy:   -53.55160610  Energy decrease:   0.00000005
 ======================================================================
 Norm of residual vector:     0.00000041      Convergence:   0.00000545
 CPU time [min]:     0.073                   Wall time [min]:     0.004
 
 Iteration  7  CI energy:   -53.55160613  Energy decrease:   0.00000003
 ======================================================================
 Norm of residual vector:     0.0000E+00      Convergence:   5.1910E-07
 CPU time [min]:     0.074                   Wall time [min]:     0.004
 
 Iteration  8  CI energy:   -53.55160612  Energy decrease:   2.5254E-09
 ======================================================================
 
 Iteration has converged in  8 steps.
 
 Final results:
 Total LR-CCS energy [au]:           -53.551606124520
 Excitation energy [eV]:          11.3541
 Excitation energy [cm^-1]:    91576.95
 Absorption wavelength [nm]:     109.20
 Spin multiplicity:                     2
 
 
 
 Dominant CI coefficients
 Printing threshold:  1.00E-02
 
    0.939996  1b -> 4b                                                  
    0.272427  1b -> 7b                                                  
    0.054419  1b -> 15b                                                 
   -0.018314  2b -> 10b                                                 
   -0.053997  4a -> 11a                                                 
   -0.086884  4a -> 13a                                                 
   -0.010123  4a -> 17a                                                 
    0.018803  4a -> 19a                                                 
    0.030057  4a -> 22a                                                 
   -0.060541  1a -> 7a                                                  
   -0.013985  1a -> 15a                                                 
   -0.048449  5a -> 7a                                                  
    0.044396  5a -> 15a                                                 
    0.092938  2a -> 10a                                                 
   -0.031179  2a -> 18a                                                 
    0.091081  3a -> 12a                                                 
   -0.030976  3a -> 20a                                                 
 
 Starting right-hand LR-CC iteration for root                      4 ...
 ======================================================================
 Norm of residual vector:     0.16436709      Convergence:   1.00000000
 CPU time [min]:     0.074                   Wall time [min]:     0.004
 
 Iteration  1  CI energy:   -53.37682973  Energy decrease:   0.59203166
 ======================================================================
 Norm of residual vector:     0.06545513      Convergence:   0.25233724
 CPU time [min]:     0.077                   Wall time [min]:     0.004
 
 Iteration  2  CI energy:   -53.39921327  Energy decrease:   0.02238354
 ======================================================================
 Norm of residual vector:     0.16308291      Convergence:   0.70449619
 CPU time [min]:     0.077                   Wall time [min]:     0.004
 
 Iteration  3  CI energy:   -53.38357237  Energy decrease:   0.01564090
 ======================================================================
 Norm of residual vector:     0.00330958      Convergence:   0.08184071
 CPU time [min]:     0.078                   Wall time [min]:     0.004
 
 Iteration  4  CI energy:   -53.39208717  Energy decrease:   0.00851480
 ======================================================================
 Norm of residual vector:     0.00034958      Convergence:   0.00561486
 CPU time [min]:     0.079                   Wall time [min]:     0.004
 
 Iteration  5  CI energy:   -53.39208367  Energy decrease:   0.00000350
 ======================================================================
 Norm of residual vector:     0.00004995      Convergence:   0.00054998
 CPU time [min]:     0.079                   Wall time [min]:     0.004
 
 Iteration  6  CI energy:   -53.39208421  Energy decrease:   0.00000054
 ======================================================================
 Norm of residual vector:     0.00000963      Convergence:   0.00008233
 CPU time [min]:     0.080                   Wall time [min]:     0.004
 
 Iteration  7  CI energy:   -53.39208398  Energy decrease:   0.00000023
 ======================================================================
 Norm of residual vector:     0.00000125      Convergence:   0.00001743
 CPU time [min]:     0.084                   Wall time [min]:     0.004
 
 Iteration  8  CI energy:   -53.39208393  Energy decrease:   0.00000005
 ======================================================================
 Norm of residual vector:     0.00000032      Convergence:   0.00000195
 CPU time [min]:     0.085                   Wall time [min]:     0.005
 
 Iteration  9  CI energy:   -53.39208393  Energy decrease:   1.7356E-09
 ======================================================================
 Norm of residual vector:     0.0000E+00      Convergence:   2.1081E-07
 CPU time [min]:     0.085                   Wall time [min]:     0.005
 
 Iteration 10  CI energy:   -53.39208393  Energy decrease:   3.6207E-10
 ======================================================================
 
 Iteration has converged in 10 steps.
 
 Final results:
 Total LR-CCS energy [au]:           -53.392083933767
 Excitation energy [eV]:          15.6949
 Excitation energy [cm^-1]:   126588.03
 Absorption wavelength [nm]:      79.00
 Spin multiplicity:                     2
 
 Dominant CI coefficients
 Printing threshold:  1.00E-02
 
    0.307510  1b -> 4b                                                  
   -0.931653  1b -> 7b                                                  
   -0.057451  1b -> 15b                                                 
   -0.032268  2b -> 10b                                                 
    0.051583  4a -> 11a                                                 
    0.079825  4a -> 13a                                                 
    0.017231  4a -> 17a                                                 
   -0.014987  4a -> 19a                                                 
   -0.023936  4a -> 22a                                                 
    0.071975  1a -> 7a                                                  
    0.017323  1a -> 15a                                                 
    0.010658  5a -> 7a                                                  
   -0.036524  5a -> 15a                                                 
   -0.086494  2a -> 10a                                                 
    0.024760  2a -> 18a                                                 
   -0.085371  3a -> 12a                                                 
    0.024679  3a -> 20a                                                 

 ************************ 2018-06-30 18:06:23 *************************
 Executing goldstone...

 Generation of CC equations in terms of H and T...
 Generation of antisymmetrized Goldstone diagrams...
 Number of diagrams in T^1 equations:    14
 Number of diagrams in T^2 equations:    31
 Translation of diagrams to factorized equations...
 Optimizing intermediate calculation...
 Optimizing right-hand EOMCC calculation...
 Number of floating-point operations per iteration step:   2.5012E+05
 Probable CPU time per iteration step (hours):      0.00
 Required memory (Mbytes):      19.5
 Number of intermediates:                                  84
 Number of intermediates to be stored:                     36
 Length of intermediate file (Mbytes):       0.5

 ************************ 2018-06-30 18:06:26 *************************
 Executing xmrcc...

 **********************************************************************
 CC(                     2 ) calculation 
 
 
 Allocation of 100.0 Mbytes of memory...
 Number of spinorbitals:                    44
 Number of alpha electrons:                        5
 Number of beta electrons:                         2
 z-component of spin:  1.5
 Spatial symmetry:                      5
 Convergence criterion:  1.0E-07
 Spatial symmetry of ground state:                      7
 Construction of occupation graphs...
 Number of                     0 -fold excitations:                      0
 Number of                     1 -fold excitations:                     18
 Number of                     2 -fold excitations:                    617
 Total number of configurations:                    635
 Number of ground state excitations: 
 Number of                     0 -fold excitations:                      1
 Number of                     1 -fold excitations:                     24
 Number of                     2 -fold excitations:                    672
 Total number of configurations:                    697
 Calculation of coupling coefficients...
 Length of intermediate file (Mbytes):       0.8
 
 ======================================================================
 
 ======================================================================
 
 ======================================================================
 
 ======================================================================
 
 Memory requirements /Mbyte/: 
               Minimal        Optimal
 Real*8:          0.8008         2.4510
 Integer:         3.4418
 Total:           4.2426         5.8928
 

 ************************ 2018-06-30 18:06:27 *************************
 Executing mrcc...

 **********************************************************************
 LR-CCSD calculation                                                    
 
 
 OpenMP parallel version is running.
 Number of CPUs:  20
 Allocation of    2.5 Mbytes of memory...
 Number of spinorbitals:  44
 Number of alpha electrons:  5
 Number of beta  electrons:  2
 z-component of spin:  1.5
 Spatial symmetry: 5
 Convergence criterion:  1.0E-07
 Spatial symmetry of ground state:                      7
 Construction of occupation graphs...
 Number of excitations for irrep 1: 
 Number of 0-fold excitations: 1
 Number of 1-fold excitations: 24
 Number of 2-fold excitations: 672
 Total number of determinants: 697
 Number of excitations for irrep 3: 
 Number of 0-fold excitations: 0
 Number of 1-fold excitations: 18
 Number of 2-fold excitations: 617
 Total number of determinants: 635
 Calculation of coupling coefficients...
 Initial cluster amplitudes are read from unit 16.
 Length of intermediate file (Mbytes):       0.8
 Reading integral list from unit 55...
 Sorting integrals...
 Sorting integrals...
 Sorting integrals...
 Sorting integrals...
 Energy of reference determinant [au]:     -53.936685707890
 Calculation of diagonal elements of Hamiltonian...
 Calculation of MP denominators...
 
 Starting CC iteration...
 ======================================================================
 Norm of residual vector:     0.59546677
 CPU time [min]:     0.197                   Wall time [min]:     0.011
 
 Iteration  1  CC energy:   -54.08665197  Energy decrease:   0.12207402
 ======================================================================
 Norm of residual vector:     0.10388896
 CPU time [min]:     0.217                   Wall time [min]:     0.012
 
 Iteration  2  CC energy:   -54.09865414  Energy decrease:   0.01200217
 ======================================================================
 Norm of residual vector:     0.05738980
 CPU time [min]:     0.237                   Wall time [min]:     0.013
 
 Iteration  3  CC energy:   -54.11226392  Energy decrease:   0.01360978
 ======================================================================
 Norm of residual vector:     0.03253337
 CPU time [min]:     0.256                   Wall time [min]:     0.014
 
 Iteration  4  CC energy:   -54.11853607  Energy decrease:   0.00627215
 ======================================================================
 Norm of residual vector:     0.01929554
 CPU time [min]:     0.277                   Wall time [min]:     0.015
 
 Iteration  5  CC energy:   -54.12211285  Energy decrease:   0.00357678
 ======================================================================
 Norm of residual vector:     0.01076910
 CPU time [min]:     0.297                   Wall time [min]:     0.016
 
 Iteration  6  CC energy:   -54.12450260  Energy decrease:   0.00238975
 ======================================================================
 Norm of residual vector:     0.00578108
 CPU time [min]:     0.317                   Wall time [min]:     0.017
 
 Iteration  7  CC energy:   -54.12542755  Energy decrease:   0.00092495
 ======================================================================
 Norm of residual vector:     0.00333492
 CPU time [min]:     0.337                   Wall time [min]:     0.018
 
 Iteration  8  CC energy:   -54.12560162  Energy decrease:   0.00017407
 ======================================================================
 Norm of residual vector:     0.00190400
 CPU time [min]:     0.359                   Wall time [min]:     0.019
 
 Iteration  9  CC energy:   -54.12562597  Energy decrease:   0.00002435
 ======================================================================
 Norm of residual vector:     0.00085207
 CPU time [min]:     0.381                   Wall time [min]:     0.020
 
 Iteration 10  CC energy:   -54.12568416  Energy decrease:   0.00005819
 ======================================================================
 Norm of residual vector:     0.00017754
 CPU time [min]:     0.402                   Wall time [min]:     0.021
 
 Iteration 11  CC energy:   -54.12567638  Energy decrease:   0.00000778
 ======================================================================
 Norm of residual vector:     0.00005263
 CPU time [min]:     0.425                   Wall time [min]:     0.023
 
 Iteration 12  CC energy:   -54.12568009  Energy decrease:   0.00000371
 ======================================================================
 Norm of residual vector:     0.00001770
 CPU time [min]:     0.446                   Wall time [min]:     0.024
 
 Iteration 13  CC energy:   -54.12568038  Energy decrease:   0.00000028
 ======================================================================
 Norm of residual vector:     0.00000634
 CPU time [min]:     0.468                   Wall time [min]:     0.025
 
 Iteration 14  CC energy:   -54.12568034  Energy decrease:   0.00000003
 ======================================================================
 Norm of residual vector:     0.00000205
 CPU time [min]:     0.496                   Wall time [min]:     0.026
 
 Iteration 15  CC energy:   -54.12568027  Energy decrease:   0.00000007
 ======================================================================
 Norm of residual vector:     0.00000074
 CPU time [min]:     0.518                   Wall time [min]:     0.028
 
 Iteration 16  CC energy:   -54.12568025  Energy decrease:   0.00000002
 ======================================================================
 Norm of residual vector:     0.00000025
 CPU time [min]:     0.539                   Wall time [min]:     0.029
 
 Iteration 17  CC energy:   -54.12568025  Energy decrease:   1.3705E-09
 ======================================================================
 Norm of residual vector:     0.00000010
 CPU time [min]:     0.560                   Wall time [min]:     0.030
 
 Iteration 18  CC energy:   -54.12568025  Energy decrease:   1.5989E-10
 ======================================================================
 
 Iteration has converged in 18 steps.
 
 Final results:
 Total CCSD energy [au]:             -54.125680250003
 Spin multiplicity:                     2
 
 
 
 Dominant cluster amplitudes
 Printing threshold:  1.00E-02
 
    1.000000  Reference determinant                                     
    0.088722  1b -> 5b                                                  
   -0.010673  1b -> 13b                                                 
   -0.027608  1b -> 17b                                                 
    0.214727  2b -> 6b                                                  
    0.062013  2b -> 14b                                                 
    0.014438  5a -> 13a                                                 
    0.016982  5a -> 17a                                                 
   -0.302048  2a -> 6a                                                  
   -0.029851  2a -> 14a                                                 
   -0.228305  4a -> 7a                                                  
   -0.031879  4a -> 15a                                                 
   -0.228305  3a -> 8a                                                  
   -0.031879  3a -> 16a                                                 
    0.024699  1b 2b -> 5b 6b                                            
    0.010507  1b 2b -> 3b 9b                                            
    0.012140  1b 2b -> 8b 9b                                            
    0.010507  1b 2b -> 4b 10b                                           
    0.012140  1b 2b -> 7b 10b                                           
    0.010333  1b 2b -> 6b 17b                                           
    0.013351  1a 1b -> 17a 5b                                           
   -0.019468  1a 1b -> 17a 17b                                          
    0.012355  2a 2b -> 13a 11b                                          
    0.011193  2a 2b -> 11a 13b                                          
   -0.021303  2a 2b -> 13a 13b                                          
   -0.017691  1a 1b -> 6a 6b                                            
   -0.012445  1a 1b -> 6a 14b                                           
   -0.012448  1a 1b -> 14a 14b                                          
    0.012409  5a 1b -> 6a 6b                                            
    0.010695  5a 1b -> 14a 6b                                           
   -0.185739  2a 2b -> 6a 6b                                            
   -0.033679  2a 2b -> 14a 6b                                           
   -0.061969  2a 2b -> 6a 14b                                           
   -0.032233  2a 2b -> 14a 14b                                          
   -0.020277  1a 1b -> 7a 4b                                            
   -0.028176  1a 1b -> 7a 7b                                            
   -0.011733  1a 1b -> 15a 7b                                           
   -0.015749  1a 1b -> 7a 15b                                           
   -0.012872  1a 1b -> 15a 15b                                          
    0.044308  5a 1b -> 7a 4b                                            
    0.012526  5a 1b -> 15a 4b                                           
    0.028621  5a 1b -> 7a 7b                                            
    0.011295  5a 1b -> 15a 7b                                           
   -0.017409  2a 2b -> 7a 4b                                            
   -0.025936  2a 2b -> 7a 7b                                            
   -0.022228  2a 2b -> 10a 10b                                          
   -0.020277  1a 1b -> 8a 3b                                            
   -0.028176  1a 1b -> 8a 8b                                            
   -0.011733  1a 1b -> 16a 8b                                           
   -0.015749  1a 1b -> 8a 16b                                           
   -0.012872  1a 1b -> 16a 16b                                          
    0.044308  5a 1b -> 8a 3b                                            
    0.012526  5a 1b -> 16a 3b                                           
    0.028621  5a 1b -> 8a 8b                                            
    0.011295  5a 1b -> 16a 8b                                           
   -0.017409  2a 2b -> 8a 3b                                            
   -0.025936  2a 2b -> 8a 8b                                            
   -0.022228  2a 2b -> 9a 9b                                            
   -0.020389  1a 2b -> 17a 6b                                           
[...]
    0.033949  4a 1b -> 15a 4b                                           
   -0.100673  4a 1b -> 7a 7b                                            
   -0.023854  4a 1b -> 15a 7b                                           
   -0.042680  4a 1b -> 7a 15b                                           
   -0.030198  4a 1b -> 15a 15b                                          
   -0.016131  4a 1b -> 10a 10b                                          
   -0.014136  4a 1b -> 8a 8b                                            
   -0.017741  4a 1b -> 12a 12b                                          
    0.052373  4a 2b -> 6a 5b                                            
    0.015243  4a 2b -> 6a 13b                                           
    0.014845  4a 2b -> 7a 10b                                           
   -0.077280  4a 2b -> 10a 4b                                           
    0.022899  4a 2b -> 18a 4b                                           
   -0.024623  4a 2b -> 10a 7b                                           
   -0.011479  1a 1b -> 11a 4b                                           
    0.024150  1a 1b -> 17a 4b                                           
   -0.010110  1a 1b -> 13a 7b                                           
   -0.016845  1a 1b -> 17a 15b                                          
   -0.010956  5a 1b -> 13a 4b                                           
   -0.019974  5a 1b -> 17a 4b                                           
    0.010100  5a 1b -> 17a 7b                                           
    0.048877  2a 2b -> 11a 4b                                           
   -0.076390  2a 2b -> 13a 4b                                           
   -0.013608  2a 2b -> 19a 4b                                           
    0.023174  2a 2b -> 22a 4b                                           
    0.016728  2a 2b -> 11a 7b                                           
   -0.024317  2a 2b -> 13a 7b                                           
   -0.025547  5a 1b -> 6a 10b                                           
   -0.014854  2a 2b -> 6a 10b                                           
    0.031230  1a 1b -> 7a 5b                                            
   -0.012055  1a 1b -> 7a 17b                                           
    0.113840  5a 1b -> 7a 5b                                            
    0.014880  5a 1b -> 7a 11b                                           
    0.025577  5a 1b -> 7a 13b                                           
   -0.052365  2a 2b -> 7a 5b                                            
    0.014410  2a 2b -> 7a 13b                                           
   -0.026454  5a 1b -> 8a 12b                                           
    0.013342  1a 1b -> 12a 3b                                           
    0.012482  1a 1b -> 12a 8b                                           
    0.143411  1a 2b -> 6a 4b                                            
    0.017617  1a 2b -> 14a 4b                                           
    0.069107  1a 2b -> 6a 7b                                            
    0.015637  1a 2b -> 6a 15b                                           
    0.075236  5a 2b -> 6a 4b                                            
   -0.042808  5a 2b -> 14a 4b                                           
    0.058174  5a 2b -> 6a 7b                                            
    0.122404  2a 1b -> 6a 4b                                            
    0.032745  2a 1b -> 14a 4b                                           
   -0.022783  2a 1b -> 6a 7b                                            
   -0.012083  2a 1b -> 14a 7b                                           
   -0.013539  2a 1b -> 6a 15b                                           
   -0.019695  2a 1b -> 14a 15b                                          
   -0.035378  1a 2b -> 7a 6b                                            
   -0.040362  5a 2b -> 7a 6b                                            
   -0.043261  2a 1b -> 7a 6b                                            
   -0.017217  2a 1b -> 7a 14b                                           
   -0.011452  2a 1b -> 9a 12b                                           
   -0.010155  3a 1b -> 11a 12b                                          
   -0.067459  3a 1b -> 7a 3b                                            
   -0.078307  3a 1b -> 7a 8b                                            
   -0.026771  3a 1b -> 7a 16b                                           
    0.123894  3a 1b -> 8a 4b                                            
    0.038457  3a 1b -> 16a 4b                                           
   -0.013070  3a 1b -> 16a 7b                                           
   -0.020432  3a 1b -> 16a 15b                                          
    0.010915  3a 1b -> 12a 13b                                          
   -0.013943  3a 2b -> 6a 12b                                           
    0.013949  3a 2b -> 7a 9b                                            
   -0.079738  3a 2b -> 9a 4b                                            
    0.023631  3a 2b -> 21a 4b                                           
   -0.026406  3a 2b -> 9a 7b                                            
   -0.011985  4a 5a -> 7a 15a                                           
   -0.010659  2a 4a -> 6a 13a                                           
    0.015983  1a 2a -> 6a 7a                                            
   -0.011831  2a 5a -> 7a 14a                                           
   -0.010519  3a 4a -> 8a 13a                                           
   -0.026194  1a 3a -> 7a 8a                                            
    0.036719  3a 5a -> 7a 8a                                            
   -0.012733  3a 5a -> 7a 16a                                           
   -0.010426  2a 3a -> 8a 10a                                           
    0.010117  2a 3a -> 6a 12a                                           
    0.034771  4a 1b 2b -> 7a 4b 6b                                      
    0.034578  4a 1b 2b -> 7a 6b 7b                                      
    0.059961  2a 1b 2b -> 6a 4b 6b                                      
    0.031499  2a 1b 2b -> 6a 6b 7b                                      
    0.014288  1a 1b 2b -> 6a 4b 5b                                      
    0.014121  5a 1b 2b -> 7a 5b 6b                                      
    0.014591  3a 1b 2b -> 6a 3b 7b                                      
   -0.014363  3a 1b 2b -> 6a 7b 8b                                      
   -0.017819  3a 1b 2b -> 7a 3b 6b                                      
    0.018134  3a 1b 2b -> 7a 6b 8b                                      
    0.054329  3a 1b 2b -> 8a 4b 6b                                      
    0.013024  3a 1b 2b -> 8a 6b 7b                                      
    0.011113  3a 1b 2b -> 8a 4b 14b                                     
   -0.016491  2a 4a 2b -> 6a 10a 4b                                     
   -0.012309  2a 4a 2b -> 7a 13a 7b                                     
    0.010274  4a 5a 2b -> 7a 10a 5b                                     
    0.013795  1a 4a 2b -> 6a 7a 4b                                      
    0.015014  4a 5a 2b -> 6a 15a 4b                                     
   -0.041056  4a 5a 2b -> 6a 7a 7b                                      
    0.036081  2a 4a 1b -> 6a 7a 4b                                      
    0.012743  2a 4a 1b -> 6a 15a 4b                                     
   -0.021547  2a 4a 1b -> 6a 7a 7b                                      
    0.011128  2a 5a 2b -> 6a 14a 7b                                     
    0.010846  2a 5a 2b -> 7a 13a 5b                                     
    0.011413  1a 2a 2b -> 6a 7a 6b                                      
   -0.054713  2a 5a 2b -> 6a 7a 6b                                      
    0.010658  2a 5a 2b -> 7a 8a 8b                                      
    0.021698  2a 5a 1b -> 6a 7a 5b                                      
   -0.030661  3a 4a 1b -> 7a 8a 4b                                      
    0.012775  3a 4a 1b -> 8a 15a 4b                                     
    0.023059  3a 4a 1b -> 7a 8a 7b                                      
   -0.014877  3a 4a 2b -> 6a 8a 5b                                      
   -0.010429  3a 4a 2b -> 8a 10a 4b                                     
   -0.011326  3a 4a 2b -> 7a 9a 7b                                      
   -0.017011  2a 3a 2b -> 6a 9a 4b                                      
    0.010330  2a 3a 2b -> 8a 13a 4b                                     
   -0.030391  3a 5a 1b -> 7a 8a 5b                                      
   -0.014891  2a 3a 2b -> 7a 8a 5b                                      
    0.028203  3a 5a 2b -> 6a 7a 3b                                      
   -0.010849  2a 3a 1b -> 6a 7a 3b                                      
   -0.011098  2a 3a 1b -> 6a 7a 8b                                      
    0.026179  1a 3a 2b -> 6a 8a 4b                                      
   -0.036875  3a 5a 2b -> 6a 8a 4b                                      
    0.012745  3a 5a 2b -> 6a 16a 4b                                     
   -0.023066  3a 5a 2b -> 6a 8a 7b                                      
    0.048171  2a 3a 1b -> 6a 8a 4b                                      
    0.011136  2a 3a 1b -> 6a 16a 4b                                     
   -0.013918  1a 3a 2b -> 7a 8a 6b                                      
    0.022755  3a 5a 2b -> 7a 8a 6b                                      
   -0.010971  2a 3a 1b -> 7a 8a 6b                                      
    0.010870  3a 5a 2b -> 7a 9a 5b                                      
    0.032328  2a 4a 1b 2b -> 6a 7a 4b 6b                                
    0.023259  2a 4a 1b 2b -> 6a 7a 6b 7b                                
    0.011884  4a 5a 1b 2b -> 6a 7a 5b 7b                                
    0.020785  2a 5a 1b 2b -> 6a 7a 5b 6b                                
   -0.026362  3a 4a 1b 2b -> 7a 8a 4b 6b                                
   -0.016580  3a 4a 1b 2b -> 7a 8a 6b 7b                                
    0.043126  2a 3a 1b 2b -> 6a 8a 4b 6b                                
    0.011890  2a 3a 1b 2b -> 6a 8a 6b 7b                                
   -0.013620  3a 5a 1b 2b -> 7a 8a 5b 6b                                
   -0.021488  2a 3a 4a 1b -> 6a 7a 8a 4b                                
    0.010564  2a 3a 4a 1b -> 6a 7a 8a 7b                                
    0.013251  2a 3a 5a 2b -> 6a 7a 8a 6b                                
   -0.026581  2a 3a 4a 1b 2b -> 6a 7a 8a 4b 6b                          
   -0.014472  2a 3a 4a 1b 2b -> 6a 7a 8a 6b 7b                          
   -0.012875  2a 3a 5a 1b 2b -> 6a 7a 8a 5b 6b                          
 
 Starting right-hand LR-CC iteration for root                      4 ...
 ======================================================================
 Norm of residual vector:     0.18212709      Convergence:   1.00000000
 CPU time [min]:   277.628                   Wall time [min]:    17.325
 
 Iteration  1  CI energy:   -53.61042042  Energy decrease:   0.52088451
 ======================================================================
 Norm of residual vector:     0.06733095      Convergence:   0.10408814
 CPU time [min]:   280.639                   Wall time [min]:    17.481
 
 Iteration  2  CI energy:   -53.61506040  Energy decrease:   0.00463998
 ======================================================================
 Norm of residual vector:     0.05860015      Convergence:   0.06436501
 CPU time [min]:   283.763                   Wall time [min]:    17.647
 
 Iteration  3  CI energy:   -53.61131140  Energy decrease:   0.00374900
 ======================================================================
 Norm of residual vector:     0.04561446      Convergence:   0.04153153
 CPU time [min]:   287.010                   Wall time [min]:    17.823
 
 Iteration  4  CI energy:   -53.61208952  Energy decrease:   0.00077812
 ======================================================================
 Norm of residual vector:     0.04218549      Convergence:   0.02812041
 CPU time [min]:   290.060                   Wall time [min]:    18.111
 
 Iteration  5  CI energy:   -53.61257422  Energy decrease:   0.00048470
 ======================================================================
 Norm of residual vector:     0.04268518      Convergence:   0.00824783
 CPU time [min]:   292.952                   Wall time [min]:    18.258
 
 Iteration  6  CI energy:   -53.61230331  Energy decrease:   0.00027091
 ======================================================================
 Norm of residual vector:     0.04935787      Convergence:   0.06508325
 CPU time [min]:   295.984                   Wall time [min]:    18.455
 
 Iteration  7  CI energy:   -53.60954660  Energy decrease:   0.00275670
 ======================================================================
 Norm of residual vector:     0.04617923      Convergence:   0.02173285
 CPU time [min]:   299.189                   Wall time [min]:    18.626
 
 Iteration  8  CI energy:   -53.60936479  Energy decrease:   0.00018181
 ======================================================================
 Complex root in matrix diagonalization.
 Desired root is complex.
 Imaginary part:   5.676320561234274E-003
 Norm of residual vector:     0.14469622      Convergence:   0.13570027
 CPU time [min]:   302.552                   Wall time [min]:    18.912
 
 Iteration  9  CI energy:   -53.59980741  Energy decrease:   0.00955738
 ======================================================================
 Complex root in matrix diagonalization.
 Desired root is complex.
 Imaginary part:   6.013250690306073E-003
 Norm of residual vector:     0.14428607      Convergence:   0.01148195
 CPU time [min]:   305.581                   Wall time [min]:    19.069
 
 Iteration 10  CI energy:   -53.59963686  Energy decrease:   0.00017055
 ======================================================================
 Complex root in matrix diagonalization.
 Desired root is complex.
 Imaginary part:   8.816060804894910E-003
 Norm of residual vector:     0.06951391      Convergence:   0.01398261
 CPU time [min]:   308.670                   Wall time [min]:    19.279
 
 Iteration 11  CI energy:   -53.60551573  Energy decrease:   0.00587887
 ======================================================================
 Complex root in matrix diagonalization.
 Desired root is complex.
 Imaginary part:   9.301379130570987E-003
 Norm of residual vector:     0.09716329      Convergence:   0.08263595
 CPU time [min]:   311.656                   Wall time [min]:    19.429
 
 Iteration 12  CI energy:   -53.61434515  Energy decrease:   0.00882942
 ======================================================================
 Complex root in matrix diagonalization.
 Desired root is complex.
 Imaginary part:   9.502825190167282E-003
 Norm of residual vector:     0.02638930      Convergence:   0.01476380
 CPU time [min]:   314.999                   Wall time [min]:    19.679
 
 Iteration 13  CI energy:   -53.60828118  Energy decrease:   0.00606396
 ======================================================================
 Norm of residual vector:     0.05260171      Convergence:   0.04483771
 CPU time [min]:   318.471                   Wall time [min]:    19.939
 
 Iteration 14  CI energy:   -53.61396021  Energy decrease:   0.00567902
 ======================================================================
 Norm of residual vector:     0.02601340      Convergence:   0.02269177
 CPU time [min]:   321.845                   Wall time [min]:    20.257
 
 Iteration 15  CI energy:   -53.61117566  Energy decrease:   0.00278455
 ======================================================================
 Norm of residual vector:     0.05491606      Convergence:   0.05854005
 CPU time [min]:   324.824                   Wall time [min]:    20.418
 
 Iteration 16  CI energy:   -53.60927470  Energy decrease:   0.00190096
 ======================================================================
 Complex root in matrix diagonalization.
 Desired root is complex.
 Imaginary part:   1.843819758189186E-003
 Norm of residual vector:     0.10857675      Convergence:   0.08806493
 CPU time [min]:   328.328                   Wall time [min]:    20.667
 
 Iteration 17  CI energy:   -53.61623227  Energy decrease:   0.00695757
 ======================================================================
 Complex root in matrix diagonalization.
 Desired root is complex.
 Imaginary part:   5.787752090606828E-003
 Norm of residual vector:     0.01899879      Convergence:   0.00883395
 CPU time [min]:   331.565                   Wall time [min]:    20.838
 
 Iteration 18  CI energy:   -53.61005087  Energy decrease:   0.00618141
 ======================================================================
 Norm of residual vector:     0.09472117      Convergence:   0.03129781
 CPU time [min]:   334.634                   Wall time [min]:    21.001
 
 Iteration 19  CI energy:   -53.61542696  Energy decrease:   0.00537610
 ======================================================================
 Norm of residual vector:     0.04842385      Convergence:   0.03281792
 CPU time [min]:   338.003                   Wall time [min]:    21.201
 
 Iteration 20  CI energy:   -53.61133101  Energy decrease:   0.00409595
 ======================================================================
 Complex root in matrix diagonalization.
 Norm of residual vector:     0.05109227      Convergence:   0.01621793
 CPU time [min]:   341.672                   Wall time [min]:    21.488
 
 Iteration 21  CI energy:   -53.61137615  Energy decrease:   0.00004515
 ======================================================================
 Complex root in matrix diagonalization.
 Desired root is complex.
 Imaginary part:   1.561206816762364E-003
 Norm of residual vector:     0.05894703      Convergence:   0.01117089
 CPU time [min]:   344.745                   Wall time [min]:    21.646
 
 Iteration 22  CI energy:   -53.61133466  Energy decrease:   0.00004149
 ======================================================================
 Complex root in matrix diagonalization.
 Norm of residual vector:     0.05830810      Convergence:   0.00834439
 CPU time [min]:   347.790                   Wall time [min]:    21.801
 
 Iteration 23  CI energy:   -53.61139257  Energy decrease:   0.00005791
 ======================================================================
 Complex root in matrix diagonalization.
 Norm of residual vector:     0.06554891      Convergence:   0.05951026
 CPU time [min]:   351.060                   Wall time [min]:    21.982
 
 Iteration 24  CI energy:   -53.60590168  Energy decrease:   0.00549089
 ======================================================================
 Complex root in matrix diagonalization.
 Desired root is complex.
 Imaginary part:   8.593519167331958E-003
 Norm of residual vector:     0.02270257      Convergence:   0.00077856
 CPU time [min]:   354.358                   Wall time [min]:    22.168
 
 Iteration 25  CI energy:   -53.60985065  Energy decrease:   0.00394897
 ======================================================================
 Complex root in matrix diagonalization.
 Desired root is complex.
 Imaginary part:   8.443703172209225E-003
 Norm of residual vector:     0.09752552      Convergence:   0.02038848
 CPU time [min]:   357.536                   Wall time [min]:    22.331
 
 Iteration 26  CI energy:   -53.61539311  Energy decrease:   0.00554247
 ======================================================================
--- SharcNET Job Epilogue ---
Job ended with signal 1.
               jobid: 1549834
               resid: 3029185
         exit status: 129
      allocated time: 1768.61
           user time: 0
         system time: 0
peak rss=623144960; peak vsz=623144960 (bytes)
atime=1768.61; utime=0; stime=0; exit=129
