 --invoking executable--
/home/nike/cfour_v2.00beta/bin/xjoda


   *************************************************************************
         <<<     CCCCCC     CCCCCC   |||     CCCCCC     CCCCCC   >>>
       <<<      CCC        CCC       |||    CCC        CCC         >>>
      <<<      CCC        CCC        |||   CCC        CCC            >>>
    <<<        CCC        CCC        |||   CCC        CCC              >>>
      <<<      CCC        CCC        |||   CCC        CCC            >>>
       <<<      CCC        CCC       |||    CCC        CCC         >>>
         <<<     CCCCCC     CCCCCC   |||     CCCCCC     CCCCCC   >>>
   *************************************************************************

     ****************************************************************
     * CFOUR Coupled-Cluster techniques for Computational Chemistry *
     ****************************************************************
 

   Department of Chemistry                Institut fuer Physikalische Chemie
   University of Texas at Austin          Universitaet Mainz
   Austin, TX  78712, USA                 D-55099 Mainz, Germany
 
                       Version 2.00beta
 
                     wob145                                            
                     Sat Jun 30 18:36:06 EDT 2018                      
                     integer*8 version is running
 
********************************************************************************
*                          Input from ZMAT file                                *
********************************************************************************
TITLE                                                                           
N                                                                               
                                                                                
*ACES2(CALC=CCSD                                                                
FROZEN_CORE=ON                                                                  
#DROPMO=1                                                                       
INPUT_MRCC=OFF                                                                  
CC_PROG=MRCC                                                                    
XFORM_TOL=18                                                                    
SAVE_INTS=ON                                                                    
SCF_EXPORDER=6                                                                  
SCF_EXPSTART=5                                                                  
#SCF_DAMPING=1000                                                               
SCF_EXTRAPOLATION=ON                                                            
SCF_CONV=10                                                                     
SCF_MAXCYC=9999                                                                 
CC_CONV=10                                                                      
CC_MAXCYC=999                                                                   
T3_EXTRAPOL=ON                                                                  
REFERENCE=ROHF                                                                  
CHARGE=+0                                                                       
MULT=4                                                                          
ABCDTYPE=STANDARD                                                               
OCCUPATION=2-1-1-0-1-0-0-0/2-0-0-0-0-0-0-0                                      
MEM=20                                                                          
MEM_UNIT=GB                                                                     
BASIS=SPECIAL)                                                                  
                                                                                
N:aVDZ-EMSL                                                                     
                                                                                
********************************************************************************
  @GTFLGS-W, Keyword #DROPMO not known and is ignored.
  @GTFLGS-W, Keyword #SCF_DAMPING not known and is ignored.
    -------------------------------------------------------------------
                    CFOUR Control Parameters 
    -------------------------------------------------------------------
        External           Internal           Value            Units
          Name               Name
    -------------------------------------------------------------------
       ABCDTYPE             IABCDT         STANDARD     [  0]   ***   
       ANHARMONIC           IANHAR         OFF          [  0]   ***   
       ANH_ALGORIT          IANALG         STANDARD     [  0]   ***   
       ANH_DERIVAT          IANDER         SECOND       [  1]   ***   
       ANH_STEPSIZ          ICUBST             50000          x 10-6  
       ANH_SYMMETR          IANHSM         ABELIAN      [  0]   ***   
       AO_LADDERS           IAOLAD         SINGLEPASS   [  1]   ***   
       BASIS                IBASIS         SPECIAL      [  0]   ***   
       BREIT                IBREIT         OFF          [  0]   ***   
       BRUCK_CONV           IBRTOL          10D-  4             ***   
       BRUECKNER            IBRKNR             OFF      [  0]   ***   
       BUFFERSIZE           IBUFFS            600               ***   
       CACHE_RECS           ICHREC             10               ***   
       CALCLEVEL            ICLLVL           CCSD       [ 10]   ***   
       CCORBOPT             ICCORB             OFF      [  0] x 0.01  
       CC_CONV              ICCCNV          10D- 10             ***   
       CC_EXPORDER          ICCEOR              5               ***   
       CC_EXTRAPOL          ICCEXT             DIIS     [  1]   ***   
       CC_MAXCYC            ICCCYC            999              cycles 
       CC_PROGRAM           ICCPRO         MRCC         [  2]   ***   
       CHARGE               ICHRGE              0               ***   
       CHOLESKY             ICHOLE         OFF          [  0]   ***   
       CIS_CONV             ICISTL              5               ***   
       COMM_SIZE            IPSIZE            ***               ***   
       CONSTANT             ICONST         OLD          [  1]   ***   
       CONTINUUM            ICONTU         NONE         [  0]   ***   
       CONTRACTION          ICNTYP          GENERAL     [  1]   ***   
       COORDINATES          ICOORD         INTERNAL     [  0]   ***   
       CPHF_CONVER          ICPHFT          10D- 16             ***   
       CPHF_MAXCYC          ICPHFC             64              cycles 
       CUBIC                ICUBIC         OFF          [  0]   ***   
       CURVILINEAR          ICURVY            OFF       [  0]   ***   
       DBOC                 IDBOC          OFF          [  0]   ***   
       DCT                  IDCT           OFF          [  0]   ***   
       DERIV_LEV            IDRLVL            ZERO      [  0]   ***   
       DIAG_MRCC            IEOMST          10D-  0             ***   
       DIFF_TYPE            IDIFTY         RELAXED      [  0]   ***   
       DIRECT               IDIRCT         OFF          [  0]   ***   
       DROPMO               IDRPMO      NONE         
       ECP                  IECP           OFF          [  0]   ***   
       EIGENVECTOR          IVEC                1               ***   
       EL_ANHARM            IELANH         OFF          [  0]   ***   
       EOMFOLLOW            IEOMSR         ENERGY       [  0]   ***   
       EOM_MRCC             IMRCCE         NEW          [  1]   ***   
       EOM_NONIT            EOMNON         OFF          [  0]   ***   
       EOM_NSING            IEOMSI          10D-  0             ***   
       EOM_NSTATES          IMRCCD         DAVIDSON     [  0]   ***   
       EOM_NTRIP            IEOMTR          10D-  0             ***   
       EOM_ORDER            IEXORD         ENERGY       [  0]   ***   
       ESTATE_CONV          IEXTOL          10D-  5             ***   
       ESTATE_DIAG          IEXDIG         ITERATIVE    [  0]   ***   
       ESTATE_LOCK          IESLOC         ON           [  1]   ***   
       ESTATE_MAXC          IEXMXC             20               ***   
       ESTATE_PROP          IEXPRP         OFF          [  0]   ***   
       EVAL_HESS            IRECAL              0            # of cyc.
       EXCITATION           IEXCIT              0               ***   
       EXCITE               IEXCIT         NONE         [  0]   ***   
       FCGRADNEW            IFCGNW         OFF          [  0]   ***   
       FC_FIELD             IFINFC              0             x 10-6  
       FD_CALTYPE           IFDCAL         GRADONLY     [  0]   ***   
       FD_PROJECT           IFDPRJ         OFF          [  1]   ***   
       FD_STEPSIZE          IDISFD              0            10-4 bohr
       FD_USEGROUP          IFDGRP         FULL         [  0]   ***   
       FILE_RECSIZ          IFLREC              4096           words  
       FINITE_PERT          IFIPER              0             x 10-6  
       FIXGEOM              IFIXGM         OFF          [  0]   ***   
       FOCK                 IFOCK          AO           [  1]   ***   
       FREQ_ALGORI          IVIALG         STANDARD     [  0]   ***   
       FROZEN_CORE          IFROCO         ON           [  1]   ***   
       FROZEN_VIRT          IFROVI         OFF          [  0]   ***   
       GAMMA_ABCD           IGABCD         STORE        [  0]   ***   
       GAMMA_ABCI           IGABCI         STORE        [  0]   ***   
       GENBAS_1             IGNBS1              0               ***   
       GENBAS_2             IGNBS2              0               ***   
       GENBAS_3             IGNBS3              0               ***   
       GENBAS_4             IGNBS4              0               ***   
       GEO_CONV             ICONTL              5              H/bohr 
       GEO_MAXCYC           IOPTCY             50               ***   
       GEO_MAXSTEP          IMXSTP            300            millibohr
       GEO_METHOD           INR            SINGLE_POINT [  5]   ***   
       GIAO                 IGIAO          OFF          [  1]   ***   
       GIMIC                IGIMIC         OFF          [  0]   ***   
       GRID                 IGRID          OFF          [  0]   ***   
       GRID_ALGO            IGALGO         SERIAL       [  0]   ***   
       GUESS                IGUESS            MOREAD    [  0]   ***   
       HBAR                 IHBAR              OFF      [  0]   ***   
       HESS_TYPE            IHESTP         SCF          [  0]   ***   
       HF2_FILE             IHF2Fl         USE          [  1]   ***   
       HFSTABILITY          ISTABL         OFF          [  0]   ***   
       INCORE               INCORE             OFF      [  0]   ***   
       INPUT_MRCC           IMRCC          OFF          [  0]   ***   
       INTEGRALS            INTTYP             VMOL     [  1]   ***   
       JODA_PRINT           IJPRNT              0               ***   
       LINDEP_TOL           ILINDP              8               ***   
       LINEQ_CONV           IZTACN          10D-  7           cycles  
       LINEQ_EXPOR          ILMAXD              5               ***   
       LINEQ_MAXCY          ILMAXC             50               ***   
       LINEQ_TYPE           ILTYPE         DIIS         [  1]   ***   
       LOCK_ORBOCC          ILOCOC             OFF      [  0]   ***   
       MEMORY_SIZE          IMEMSZ         *********           words  
       MEM_UNIT             IMEMU          GB           [  3]   ***   
       MRCC                 IMRCCC         OFF          [  0]   ***   
       MULTIPLICTY          IMULTP              4               ***   
       NEGEVAL              IDIE             ABORT      [  0]   ***   
       NEWNORM              INEWNO         OFF          [  0]   ***   
       NON-HF               INONHF              ON      [  1]   ***   
       NTOP_TAMP            ITOPT2             15               ***   
       NUC_MODEL            INUCMO         POINT        [  0]   ***   
       OCCUPATION           IOCCU  A   2,  1,  1,  0,  1,  0,  0,  0,
                                   B   2,  0,  0,  0,  0,  0,  0,  0,
       OPEN-SHELL           IOPEN          SPIN-ORBITAL [  0]   ***   
       ORBITALS             IORBTP         SEMICANONICAL[  1]   ***   
       PARALLEL             IPARAL         ON           [  1]   ***   
       PARA_INT             IPINTS         ON           [  1]   ***   
       PARA_PRINT           IPPRIN              0               ***   
       PERT_ORB             IPTORB         STANDARD     [  0]   ***   
       POINTS               IGRDFD              0               ***   
       PRINT                IPRNT               0               ***   
       PROPS                IPROPS             OFF      [  0]   ***   
       PROP_INTEGR          IINTYP         INTERNAL     [  0]   ***   
       PSI                  IPSI           OFF          [  0]   ***   
       QUARTIC              IQUART         OFF          [  0]   ***   
       RAMAN_INT            IRAMIN         OFF          [  0]   ***   
       RAMAN_ORB            IRAMRE         UNRELAXED    [  0]   ***   
       RDO                  IRDOFM             OFF      [  0]   ***   
       REFERENCE            IREFNC             ROHF     [  2]   ***   
       RELATIVIST           IRELAT         OFF          [  0]   ***   
       RELAX_DENS           IRDENS             OFF      [  0]   ***   
       RESET_FLAGS          IRESET             OFF      [  0]   ***   
       RESTART_CC           ICCRES         OFF          [  0]   ***   
       ROT_EVEC             ROTVEC              0               ***   
       SAVE_INTS            ISVINT              ON      [  1]   ***   
       SCALE_ON             ISTCRT              0               ***   
       SCF_CONV             ISCFCV          10D- 10             ***   
       SCF_DAMPING          IDAMP               0             x 10-3  
       SCF_EXPORDE          IRPPOR              6               ***   
       SCF_EXPSTAR          IRPPLS              5               ***   
       SCF_EXTRAPO          IRPP                ON      [  1]   ***   
       SCF_MAXCYC           ISCFCY            ***              cycles 
       SCF_NOSTOP           ISCFST         OFF          [  0]   ***   
       SCF_PRINT            ISCFPR              0               ***   
       SD_FIELD             IFINSD              0             x 10-6  
       SEQUENCE             ISEQUE         OFF          [  0]   ***   
       SOPERT               IPERSO         OFF          [  0]   ***   
       SPHERICAL            IDFGHI             ON       [  1]   ***   
       SPINORBIT            ISOCAL         OFF          [  0]   ***   
       SPINROTATIO          ISRCON         OFF          [  0]   ***   
       SPIN_FLIP            ISPFLP         OFF          [  0]   ***   
       SPIN_ORBIT           ISPORB         OFF          [  0]   ***   
       SPIN_SCAL            ISCSMP         OFF          [  0]   ***   
       SUBGROUP             ISUBGP         DEFAULT      [  0]   ***   
       SUBGRPAXIS           ISBXYZ         X            [  0]   ***   
       SYMMETRY             ISYM             ON         [  0]   ***   
       SYM_CHECK            ISYMCK         OVERRIDE     [  1]   ***   
       T3_EXTRAPOL          IT3EXT         ON           [  1]   ***   
       TAMP_SUM             IEVERY              5               ***   
       TESTSUITE            ITESTS         OFF          [  0]   ***   
       THERMOCH             ITHERM         OFF          [  0]   ***   
       TOL_CHOLESK          ITOLCH          10D-  4             ***   
       TRANGRAD             IRESRM         OFF          [  0]   ***   
       TRANS_INV            ITRAIN         USE          [  0]   ***   
       TREAT_PERT           ITREAT         SIMULTANEOUS [  0]   ***   
       UIJ_THRESHO          IUIJTH              1               ***   
       UNITS                IUNITS         ANGSTROM     [  0]   ***   
       UNOS                 IUNOS          OFF          [  0]   ***   
       UPDATE_HESS          IHUPDT         ON           [  1]   ***   
       VIBPHASE             ISETPH         STANDARD     [  0]   ***   
       VIBRATION            IVIB              NO        [  0]   ***   
       VIB_ALGORIT          IGEALG         STANDARD     [  0]   ***   
       VNATORB              IVNORB         OFF          [  0]   ***   
       VTRAN                IVTRAN         FULL/PARTIAL [  0]   ***   
       XFIELD               IXEFLD              0             x 10-6  
       XFORM_TOL            IXFTOL          10D- 18             ***   
       YFIELD               IYEFLD              0             x 10-6  
       ZFIELD               IZEFLD              0             x 10-6  
    -------------------------------------------------------------------
   1 entries found in Z-matrix 
   Job Title : TITLE                                                                           
  1  N          7    14.00307
 factor:   60.1997200000000     
   Rotational constants (in cm-1): 

   Rotational constants (in MHz): 

********************************************************************************
   The full molecular point group is I h .
   The largest Abelian subgroup of the full molecular point group is D2h .
   The computational point group is D2h .
********************************************************************************
  @GTFLGS-W, Keyword #DROPMO not known and is ignored.
  @GTFLGS-W, Keyword #SCF_DAMPING not known and is ignored.
  There is   1 frozen-core orbital.
  There is   1 frozen-core orbital.
  There are   23 basis functions.
 @GEOPT-W, Archive file not created for single-point calculation.
  @CHECKOUT-I, Total execution time (CPU/WALL):        0.11/       0.94 seconds.
--executable xjoda finished with status     0 in        0.97 seconds (walltime).
 --invoking executable--
/home/nike/cfour_v2.00beta/bin/xvmol
 Serial version of molecule started
********************************************************************************
                    Input from MOL file
********************************************************************************
INTGRL        1    0    1    0    0    0    0    0    0                         
         *** CFOUR Program System (Release V0.1) ***                            
TITLE                                                                           
    1    3 X  Y   Z   0.10E-08              0    0                              
   9999.00      3.00                                                            
          7.00000000    1    3    1    1    1                                   
N #1   0.000000000000000   0.000000000000000   0.000000000000000                
   10    4                                                                      
   9046.00000000000       7.000000000000000E-004 -1.530000000000000E-004        
  0.000000000000000E+000  0.000000000000000E+000                                
   1357.00000000000       5.389000000000000E-003 -1.208000000000000E-003        
  0.000000000000000E+000  0.000000000000000E+000                                
   309.300000000000       2.740600000000000E-002 -5.992000000000000E-003        
  0.000000000000000E+000  0.000000000000000E+000                                
   87.7300000000000       0.103207000000000      -2.454400000000000E-002        
  0.000000000000000E+000  0.000000000000000E+000                                
   28.5600000000000       0.278723000000000      -6.745900000000001E-002        
  0.000000000000000E+000  0.000000000000000E+000                                
   10.2100000000000       0.448540000000000      -0.158078000000000             
  0.000000000000000E+000  0.000000000000000E+000                                
   3.83800000000000       0.278238000000000      -0.121831000000000             
  0.000000000000000E+000  0.000000000000000E+000                                
  0.746600000000000       1.544000000000000E-002  0.549003000000000             
  0.000000000000000E+000  0.000000000000000E+000                                
  0.224800000000000      -2.864000000000000E-003  0.578815000000000             
   1.00000000000000       0.000000000000000E+000                                
  6.124000000000000E-002  0.000000000000000E+000  0.000000000000000E+000        
  0.000000000000000E+000   1.00000000000000                                     
    5    3                                                                      
   13.5500000000000       3.991900000000000E-002  0.000000000000000E+000        
  0.000000000000000E+000                                                        
   2.91700000000000       0.217169000000000       0.000000000000000E+000        
  0.000000000000000E+000                                                        
  0.797300000000000       0.510319000000000       0.000000000000000E+000        
  0.000000000000000E+000                                                        
  0.218500000000000       0.462214000000000        1.00000000000000             
  0.000000000000000E+000                                                        
  5.611000000000000E-002  0.000000000000000E+000  0.000000000000000E+000        
   1.00000000000000                                                             
    2    2                                                                      
  0.817000000000000        1.00000000000000       0.000000000000000E+000        
  0.230000000000000       0.000000000000000E+000   1.00000000000000             
FINISH                                                                          
 
********************************************************************************
 One- and two-electron integrals over symmetry-adapted AOs are calculated.

  Spherical harmonics are used.
  
  Integrals less than  0.10E-13 are neglected.

  Nuclear repulsion energy :    0.0000000000 a.u.
  required memory for a1 array                5020257  words 
  required memory for a2 array                2070308  words 
 @GETMEM-I,  Allocated      69 MB of main memory.
  @MOLECU-I, One electron integrals (CPU/WALL):        0.01/       0.02 seconds.
  @TWOEL-I,        379 integrals of symmetry type  I I I I
  @TWOEL-I,       1506 integrals of symmetry type  I J I J
  @TWOEL-I,       1161 integrals of symmetry type  I I J J
  @TWOEL-I,       1760 integrals of symmetry type  I J K L
  @TWOEL-I, Total number of 2-e integrals       4806.
  @MOLECU-I, Two electron integrals (CPU/WALL):        0.00/       0.02 seconds.
  @CHECKOUT-I, Total execution time (CPU/WALL):        0.02/       0.07 seconds.
--executable xvmol finished with status     0 in        0.10 seconds (walltime).
 --invoking executable--
/home/nike/cfour_v2.00beta/bin/xvmol2ja
 @GETMEM-I,  Allocated   19073 MB of main memory.
  @CHECKOUT-I, Total execution time (CPU/WALL):        0.00/       0.05 seconds.
--executable xvmol2ja finished with status     0 in        0.09 seconds (walltime).
 --invoking executable--
/home/nike/cfour_v2.00beta/bin/xvscf
  There are   23 functions in the AO basis.

  There are 8 irreducible representations.

       Irrep        # of functions
         1                  8
         2                  3
         3                  3
         4                  2
         5                  3
         6                  2
         7                  2
         8                  0


  Parameters for SCF calculation: 
        SCF reference function: ROHF  
  Maximum number of iterations: 9999
     Full symmetry point group: I h 
     Computational point group: D2h 
        Initial density matrix: MOREAD                 
     SCF convergence tolerance: 10**(-10)
  DIIS convergence acceleration:  ON
          Latest start for DIIS:   5
                     DIIS order:   6

     Alpha population by irrep:   2    1    1    0    1    0    0    0
      Beta population by irrep:   2    0    0    0    0    0    0    0


  Memory information:      62860 words required.
  Fock matrices are constructed from AO integral file.
 @GETMEM-I,  Allocated       0 MB of main memory.
  Initialization and symmetry analysis required      0.001 seconds.

 total no. of electrons in initial guess :  0.000000000000000E+000
 total no. of electrons in initial guess :  0.000000000000000E+000
  --------------------------------------------------------------------
  Iteration         Total Energy            Largest Density Difference
  --------------------------------------------------------------------
       0             0.000000000000000              0.0000000000D+00
   current occupation vector 
     2  1  1  0  1  0  0  0
     2  0  0  0  0  0  0  0
       1           -52.642721023154110              0.5080043740D+01
   current occupation vector 
     2  1  1  0  1  0  0  0
     2  0  0  0  0  0  0  0
       2           -52.337558410007745              0.4187643151D+01
   current occupation vector 
     2  1  1  0  1  0  0  0
     2  0  0  0  0  0  0  0
       3           -54.104041784547221              0.1569815444D+01
   current occupation vector 
     2  1  1  0  1  0  0  0
     2  0  0  0  0  0  0  0
       4           -53.962664761922937              0.1261043923D+01
   current occupation vector 
     2  1  1  0  1  0  0  0
     2  0  0  0  0  0  0  0
       5           -54.355792610760624              0.6433736023D+00
   current occupation vector 
     2  1  1  0  1  0  0  0
     2  0  0  0  0  0  0  0
       6           -54.384246678637091              0.3348472477D+00
   current occupation vector 
     2  1  1  0  1  0  0  0
     2  0  0  0  0  0  0  0
       7           -54.389635958228219              0.9068409795D-01
   current occupation vector 
     2  1  1  0  1  0  0  0
     2  0  0  0  0  0  0  0
       8           -54.389846209047576              0.2775272143D-01
   current occupation vector 
     2  1  1  0  1  0  0  0
     2  0  0  0  0  0  0  0
       9           -54.389860580447717              0.7465389329D-02
   current occupation vector 
     2  1  1  0  1  0  0  0
     2  0  0  0  0  0  0  0
      10           -54.389870727736316              0.2944719123D-02
   current occupation vector 
     2  1  1  0  1  0  0  0
     2  0  0  0  0  0  0  0
      11           -54.389870729081956              0.3300310970D-04
   current occupation vector 
     2  1  1  0  1  0  0  0
     2  0  0  0  0  0  0  0
      12           -54.389870729086290              0.1933688683D-05
   current occupation vector 
     2  1  1  0  1  0  0  0
     2  0  0  0  0  0  0  0
      13           -54.389870729086304              0.7265673461D-07
   current occupation vector 
     2  1  1  0  1  0  0  0
     2  0  0  0  0  0  0  0
      14           -54.389870729086269              0.3824897066D-09
   current occupation vector 
     2  1  1  0  1  0  0  0
     2  0  0  0  0  0  0  0

  SCF has converged.

 Density matrix saved to file den.dat
 total alpha spin electron number:   5.00000000000000     
 total  beta spin electron number:   2.00000000000000     
     E(ROHF)=       -54.389870729086276              0.4667127795D-11

  Eigenvector printing suppressed.


       The average multiplicity is    4.0000000
  The expectation value of S**2 is    3.7500000

 @PUTMOS-I, Writing converged MOs to NEWMOS. 
 @PUTMOS-I, Symmetry   1 Full Blocks  2 Partial Blocksize   0
 @PUTMOS-I, Symmetry   2 Full Blocks  0 Partial Blocksize   3
 @PUTMOS-I, Symmetry   3 Full Blocks  0 Partial Blocksize   3
 @PUTMOS-I, Symmetry   4 Full Blocks  0 Partial Blocksize   2
 @PUTMOS-I, Symmetry   5 Full Blocks  0 Partial Blocksize   3
 @PUTMOS-I, Symmetry   6 Full Blocks  0 Partial Blocksize   2
 @PUTMOS-I, Symmetry   7 Full Blocks  0 Partial Blocksize   2
 @PUTMOS-I, Symmetry   8 Full Blocks  0 Partial Blocksize   0
  @DMPJOB-I, Rotating orbitals to semicanonical basis.
             *** Eigenvalues correspond to new basis. ***



 
  ORBITAL EIGENVALUES (ALPHA)  (1H = 27.2113838 eV)

       MO #        E(hartree)               E(eV)           FULLSYM    COMPSYM
       ----   --------------------   --------------------   -------   ---------
    1     1         -15.6801791216        -426.6793724389      Ag        Ag (1)
    2     2          -1.1537218224         -31.3943673315      Ag        Ag (1)
    3     9          -0.5675554163         -15.4439682705     T1u       B2u (2)
    4    17          -0.5675554163         -15.4439682705     T1u       B1u (5)
    5    12          -0.5675554163         -15.4439682705     T1u       B3u (3)
  +++++++++++++++++++++++++++++++++++++++++++++++++++++++++++++++++++++++++++++
    6     3           0.1389665162           3.7814712115      Ag        Ag (1)
    7    10           0.1558689507           4.2414098429     T1u       B2u (2)
    8    13           0.1558689507           4.2414098429     T1u       B3u (3)
    9    18           0.1558689507           4.2414098429     T1u       B1u (5)
   10    20           0.6504409094          17.6993972371      Hg       B3g (6)
   11     4           0.6504409094          17.6993972371      Hg        Ag (1)
   12    15           0.6504409094          17.6993972371      Hg       B1g (4)
   13    22           0.6504409094          17.6993972371      Hg       B2g (7)
   14     5           0.6504409094          17.6993972371      Hg        Ag (1)
   15    14           1.0316507231          28.0726437953     T1u       B2u (3)
   16    11           1.0316507231          28.0726437953     T1u       B3u (2)
   17    19           1.0316507231          28.0726437953     T1u       B1u (5)
   18     6           1.2947416531          35.2317120707      Ag        Ag (1)
   19     7           2.3833918417          64.8553901972      Hg        Ag (1)
   20     8           2.3833918417          64.8553901972      Hg        Ag (1)
   21    16           2.3833918417          64.8553901972      Hg       B1g (4)
   22    23           2.3833918417          64.8553901972      Hg       B2g (7)
   23    21           2.3833918417          64.8553901972      Hg       B3g (6)


 
  ORBITAL EIGENVALUES ( BETA)  (1H = 27.2113838 eV)

       MO #        E(hartree)               E(eV)           FULLSYM    COMPSYM
       ----   --------------------   --------------------   -------   ---------
    1     1         -15.5946944057        -424.3532150218      Ag        Ag (1)
    2     2          -0.7433658656         -20.2280138860      Ag        Ag (1)
  +++++++++++++++++++++++++++++++++++++++++++++++++++++++++++++++++++++++++++++
    3    12           0.0833271396           2.2674467795     T1u       B3u (3)
    4    17           0.0833271396           2.2674467795     T1u       B1u (5)
    5     9           0.0833271396           2.2674467795     T1u       B2u (2)
    6     3           0.1620803392           4.4104303204      Ag        Ag (1)
    7    13           0.2620928900           7.1319102267     T1u       B3u (3)
    8    18           0.2620928900           7.1319102267     T1u       B1u (5)
    9    10           0.2620928900           7.1319102267     T1u       B2u (2)
   10    20           0.7167792252          19.5045546121      Hg       B3g (6)
   11    15           0.7167792252          19.5045546121      Hg       B1g (4)
   12     4           0.7167792252          19.5045546121      Hg        Ag (1)
   13    22           0.7167792252          19.5045546121      Hg       B2g (7)
   14     5           0.7167792252          19.5045546121      Hg        Ag (1)
   15    19           1.2169760365          33.1156020274     T1u       B1u (5)
   16    14           1.2169760365          33.1156020274     T1u       B3u (3)
   17    11           1.2169760365          33.1156020274     T1u       B2u (2)
   18     6           1.4023885915          38.1609342284      Ag        Ag (1)
   19    16           2.5584212518          69.6181826550      Hg        Ag (4)
   20     7           2.5584212518          69.6181826550      Hg       B1g (1)
   21    23           2.5584212518          69.6181826550      Hg       B2g (7)
   22     8           2.5584212518          69.6181826550      Hg        Ag (1)
   23    21           2.5584212518          69.6181826550      Hg       B3g (6)


  VSCF finished.

  @CHECKOUT-I, Total execution time (CPU/WALL):        0.02/       0.36 seconds.
--executable xvscf finished with status     0 in        0.64 seconds (walltime).
 --invoking executable--
/home/nike/cfour_v2.00beta/bin/xvtran
 @GETMEM-I,  Allocated   19073 MB of main memory.
  Full UHF integral transformation
  The following   1 alpha MOs will be dropped.
    1
  There are  22 active alpha molecular orbitals.
  The following   1 beta MOs will be dropped.
    1
  There are  22 active beta molecular orbitals.
  Transformation of IIII integrals :
  2 passes through the AO integral file were required.
         379 AO integrals were read.
         487 MO integrals (Spin case AAAA) were written to HF2AA.
         487 MO integrals (Spin case BBBB) were written to HF2BB.
         919 MO integrals (Spin case AABB) were written to HF2AB.
  Transformation of IIJJ integrals :
  2 passes through the AO integral file were required.
        1161 AO integrals were read.
        1053 MO integrals (Spin case AAAA) were written to HF2AA.
        1053 MO integrals (Spin case BBBB) were written to HF2BB.
        2106 MO integrals (Spin case AABB) were written to HF2AB.
  Transformation of IJIJ integrals :
  2 passes through the AO integral file were required.
        1506 AO integrals were read.
        1362 MO integrals (Spin case AAAA) were written to HF2AA.
        1362 MO integrals (Spin case BBBB) were written to HF2BB.
        2526 MO integrals (Spin case AABB) were written to HF2AB.
  Transformation of IJKL integrals :
  2 passes through the AO integral file were required.
        1760 AO integrals were read.
        1626 MO integrals (Spin case AAAA) were written to HF2AA.
        1626 MO integrals (Spin case BBBB) were written to HF2BB.
        3252 MO integrals (Spin case AABB) were written to HF2AB.
  Summary of active molecular orbitals: 
------------------------------------------------------------------------
                         * Spin case alpha *
 
  Index      Eigenvalue    Symmetry    Index      Eigenvalue    Symmetry
------------------------------------------------------------------------
     1        -1.1537218        1        12         1.0316507        2
     2        -0.5675554        2        13         0.1558690        3
     3        -0.5675554        3        14         1.0316507        3
     4        -0.5675554        5        15         0.6504409        4
     5         0.1389665        1        16         2.3833918        4
     6         0.6504409        1        17         0.1558690        5
     7         0.6504409        1        18         1.0316507        5
     8         1.2947417        1        19         0.6504409        6
     9         2.3833918        1        20         2.3833918        6
    10         2.3833918        1        21         0.6504409        7
    11         0.1558690        2        22         2.3833918        7
------------------------------------------------------------------------
------------------------------------------------------------------------
                         * Spin case beta *
 
  Index      Eigenvalue    Symmetry    Index      Eigenvalue    Symmetry
------------------------------------------------------------------------
     1        -0.7433659        1        12         0.2620929        3
     2         0.1620803        1        13         1.2169760        3
     3         0.7167792        1        14         0.7167792        4
     4         0.7167792        1        15         2.5584213        4
     5         1.4023886        1        16         0.0833271        5
     6         2.5584213        1        17         0.2620929        5
     7         2.5584213        1        18         1.2169760        5
     8         0.0833271        2        19         0.7167792        6
     9         0.2620929        2        20         2.5584213        6
    10         1.2169760        2        21         0.7167792        7
    11         0.0833271        3        22         2.5584213        7
------------------------------------------------------------------------
  @CHECKOUT-I, Total execution time (CPU/WALL):        0.02/       0.85 seconds.
--executable xvtran finished with status     0 in        0.88 seconds (walltime).
 --invoking executable--
/home/nike/cfour_v2.00beta/bin/xintprc
 @GETMEM-I,  Allocated   19073 MB of main memory.
  Processing integrals for CCSD calculation.
  @GMOIAA-I, Processing MO integrals for spin case AA.
  @GMOIAA-I, Generation of integral list completed.
                      TYPE                NUMBER
                      ----               --------
                      PPPP                  2118
                      PPPH                  1620
                      PPHH                   396
                      PHPH                   276
                      PHHH                   102
                      HHHH                    16

                     TOTAL                  4528
  @GMOIAA-I, Processing MO integrals for spin case BB.
  @GMOIAA-I, Generation of integral list completed.
                      TYPE                NUMBER
                      ----               --------
                      PPPP                  3717
                      PPPH                   708
                      PPHH                    48
                      PHPH                    48
                      PHHH                     6
                      HHHH                     1

                     TOTAL                  4528
  @GMOIAB-I, Processing MO integrals for spin case AB.
                      TYPE                NUMBER
                      ----               --------
                      PPPP                  5388
                      PPPH1H                2214
                      PPPH2H                 534
                      PPHH                   216
                      PHPH1P                  39
                      PHPH2P                 357
                      PHHH1P                  12
                      PHHH2P                  39
                      HHHH                     4

                     TOTAL                  8803
            ----------------------------------------------
                     Projected spin multiplicities: 
            ----------------------------------------------
             <0|S^2|0>                  =    3.7500000000.
             <0|S^2 T2|0>               =    0.0000000000.
             Projected <0|S^2 exp(T)|0> =    3.7500000000.
             Approximate spin mult.     =    4.0000000000.
            ----------------------------------------------
   Largest T2 amplitudes for spin case AA:
   i   j   a   b             i   j   a   b             i   j   a   b
-----------------------------------------------------------------------------
[  3   2  14  12]-0.02482 [  4   3  18  14]-0.02482 [  4   2  18  12]-0.02482
[  3   2  15   7]-0.01531 [  3   2  16   9]-0.01462 [  2   1  12   8]-0.01373
[  4   1  18   8]-0.01373 [  3   1  14   8]-0.01373 [  4   2  19   6] 0.01340
[  4   3  21   6] 0.01312 [  4   3  22  10] 0.01281 [  4   2  17  12]-0.01274
[  3   2  13  12]-0.01274 [  4   3  17  14]-0.01274 [  4   3  18  13]-0.01274
-----------------------------------------------------------------------------
   Norm of T2AA vector (      120 symmetry allowed elements):  0.0819102084.
-----------------------------------------------------------------------------
   Largest T2 amplitudes for spin case AB:
       _       _                 _       _                 _       _
   i   j   a   b             i   j   a   b             i   j   a   b
-----------------------------------------------------------------------------
[  2   1  12   5]-0.02405 [  3   1  14   5]-0.02405 [  4   1  18   5]-0.02405
[  4   1  10  17]-0.01992 [  4   1   6  17] 0.01914 [  1   1   8   5]-0.01764
[  4   1   6  16] 0.01748 [  2   1   9   9]-0.01745 [  2   1  16  12]-0.01726
[  4   1  22  12]-0.01726 [  2   1  20  17]-0.01726 [  3   1  22  17]-0.01726
[  3   1  16   9]-0.01726 [  4   1  20   9]-0.01726 [  3   1   9  12] 0.01706
-----------------------------------------------------------------------------
   Norm of T2AB vector (      216 symmetry allowed elements):  0.1272204357.
-----------------------------------------------------------------------------
  @CHECKOUT-I, Total execution time (CPU/WALL):        0.02/       0.29 seconds.
--executable xintprc finished with status     0 in        0.45 seconds (walltime).
 --invoking executable--
/home/nike/cfour_v2.00beta/bin/xint
 @GETMEM-I,  Allocated   19073 MB of main memory.
  @CHECKOUT-I, Total execution time (CPU/WALL):        0.03/       0.04 seconds.
--executable xint finished with status     0 in        0.20 seconds (walltime).
 --invoking executable--
/home/nike/MRCC/dmrcc
 **********************************************************************
                          MRCC program system
 **********************************************************************
 
                              Written by
    Mihaly Kallay, Zoltan Rolik, Jozsef Csontos, Istvan Ladjanszki,
       Lorant Szegedy, Bence Ladoczki, Gyula Samu, Klara Petrov,
        Mate Farkas, Peter Nagy, David Mester, and Bence Hegely
 
        Department of Physical Chemistry and Materials Science
            Budapest University of Technology and Economics
                  Budapest P.O.Box 91, H-1521 Hungary
 
                              www.mrcc.hu

 ************************ 2018-06-30 18:36:10 *************************
 Executing minp...

 Reading input from MINP...
 
 Input file:
 
# N 2Z
basis=aVDZ-EMSL
iface=cfour
uncontract=off
calc=CC(5)
mem=32GB
core=1
itol=18
scftol=13
cctol=7
ccmaxit=999
scfmaxit=9999
scfiguess=ao
scftype=ROHF
rohftype=semicanonical
rest=2
charge=+0
refdet=serialno
1,2
3,4,5

symm=8
mult=4
#occ=3,0,0,0,0,1,0,0/1,0,0,0,0,1,0,0
geom
N

#Li 1 R

#R=3.065

#unit=angstroms

tprint=0.01
verbosity=3
nstate=4

 
 
 Checking keyword combinations...
 
 Keywords:
 
 active=none
 agrid=ld0006-ld0590
 basis=avdz-emsl
 basopt=off
 bpcompo=0.985
 bpcompv=0.98
 bpdfo=0.985
 bpocc=0.985
 bppdo=0.985
 bppdv=0.98
 bpedo=0.985
 bpedv=0.98
 calc=cc(5)
 ccmaxit=999
 ccprog=mrcc
 cctol=7
 charge=+0
 cialg=disk
 ciguess=off
 cmpgrp=auto
 core=1
 corembed=off
 dboc=off
 dendec=cholesky
 dens=0
 dfalg=invsqrt
 dfbasis_cor=none
 dfbasis_scf=none
 dfintran=ovirt
 dft=off
 diag=david
 domrad=10.d0
 drpaalg=fit
 ecp=auto
 edisp=off
 embed=off
 epert=none
 eps=0.975
 excrad=0.d0
 excrad_fin=0.000000000D+00
 freq=off
 gauss=spher
 geom=zmat
 gopt=off
 ghost=none
 gtol=7
 grtol=10
 hamilton=dc
 iface=cfour
 intalg=auto
 itol=18
 lcorthr=loose
 lccrest=off
 lmp2dens=on
 lnoepso=3e-5
 lnoepsv=1e-6
 localcc=off
 locintrf=disk
 maxact=off
 maxex=0
 bfbasis=none
 mem=32gb
 molden=on
 mulmet=0
 mult=4
 nacto=0
 nactv=0
 naf_cor=off
 naf_scf=off
 nafalg=albe
 naftyp=
 nchol=auto
 ndeps=1e-3
 nstate=4
 nsing=0
 ntrip=0
 occ=
 optalg=
 optmaxit=50
 optetol=1e-6
 optgtol=1e-4
 optstol=1e-3
 orblocc=off
 orbloco=off
 orblocv=off
 osveps=1e-3
 ovirt=off
 ovosnorb=80.0
 ptfreq=0.0
 popul=off
 pressure=100000
 qmmm=off
 refdet=serialno
 rest=2
 rgrid=log3
 rohftype=semicanonical
 scspe=1.d0
 scsps=1.2d0
 scspt=0.33333333333333
 scfalg=auto
 scfdamp=off
 scfdiis=on
 scfdiis_end=9999
 scfdiis_start=1
 scfdiis_step=1
 scfdtol=17
 scfext=10
 scfiguess=ao
 scflshift=off
 scfmaxit=9999
 scftype=rohf
 scftol=13
 spairtol=1e-4
 symm=8
 talg=occ
 temp=298.15
 test=off
 tprint=0.01
 uncontract=off
 unit=angs
 verbosity=3
 wpairtol=0.100000000E-05

 ************************ 2018-06-30 18:36:10 *************************
 Executing goldstone...

 Generation of CC equations in terms of H and T...
 Generation of antisymmetrized Goldstone diagrams...
 Number of diagrams in T^1 equations:    15
 Number of diagrams in T^2 equations:    38
 Number of diagrams in T^3 equations:    54
 Number of diagrams in T^4 equations:    80
 Number of diagrams in T^5 equations:    99
 Translation of diagrams to factorized equations...
 Optimizing intermediate calculation...
 Optimizing right-hand EOMCC calculation...
 Number of floating-point operations per iteration step:   5.5097E+08
 Probable CPU time per iteration step (hours):      0.01
 Required memory (Mbytes):      19.5
 Number of intermediates:                                 348
 Number of intermediates to be stored:                    133
 Length of intermediate file (Mbytes):      28.4

 ************************ 2018-06-30 18:36:17 *************************
 Executing xmrcc...

 **********************************************************************
 CC(                     5 ) calculation 
 
 
 Allocation of 100.0 Mbytes of memory...
 Number of spinorbitals:                    44
 Number of alpha electrons:                        5
 Number of beta electrons:                         2
 z-component of spin:  1.5
 Spatial symmetry:                      8
 Convergence criterion:  1.0E-07
 Spatial symmetry of ground state:                      7
 Construction of occupation graphs...
 Number of                     0 -fold excitations:                      0
 Number of                     1 -fold excitations:                     21
 Number of                     2 -fold excitations:                    665
 Number of                     3 -fold excitations:                   9770
 Number of                     4 -fold excitations:                  67912
 Number of                     5 -fold excitations:                 222278
 Total number of configurations:                 300646
 Number of ground state excitations: 
 Number of                     0 -fold excitations:                      1
 Number of                     1 -fold excitations:                     24
 Number of                     2 -fold excitations:                    672
 Number of                     3 -fold excitations:                   9697
 Number of                     4 -fold excitations:                  67962
 Number of                     5 -fold excitations:                 222108
 Total number of configurations:                 300464
 Calculation of coupling coefficients...
 Length of intermediate file (Mbytes):      66.1
 
 ======================================================================
 
 ======================================================================
 
 ======================================================================
 
 ======================================================================
 
 Memory requirements /Mbyte/: 
               Minimal        Optimal
 Real*8:        198.4141       198.4142
 Integer:         9.5320
 Total:         207.9461       207.9462
 

 ************************ 2018-06-30 18:36:24 *************************
 Executing goldstone...

 Generation of CC equations in terms of H and T...
 Generation of antisymmetrized Goldstone diagrams...
 Number of diagrams in T^1 equations:     8
 Translation of diagrams to factorized equations...
 Optimizing intermediate calculation...
 Optimizing right-hand EOMCC calculation...
 Number of floating-point operations per iteration step:   4.1332E+02
 Probable CPU time per iteration step (hours):      0.00
 Required memory (Mbytes):      19.5
 Number of intermediates:                                  19
 Number of intermediates to be stored:                      9
 Length of intermediate file (Mbytes):       0.0

 ************************ 2018-06-30 18:36:24 *************************
 Executing xmrcc...

 **********************************************************************
 CC(                     1 ) calculation 
 
 
 Allocation of 100.0 Mbytes of memory...
 Number of spinorbitals:                    44
 Number of alpha electrons:                        5
 Number of beta electrons:                         2
 z-component of spin:  1.5
 Spatial symmetry:                      8
 Convergence criterion:  1.0E-07
 Spatial symmetry of ground state:                      7
 Construction of occupation graphs...
 Number of                     0 -fold excitations:                      0
 Number of                     1 -fold excitations:                     21
 Total number of configurations:                     21
 Number of ground state excitations: 
 Number of                     0 -fold excitations:                      1
 Number of                     1 -fold excitations:                     24
 Total number of configurations:                     25
 Calculation of coupling coefficients...
 Length of intermediate file (Mbytes):       0.1
 
 ======================================================================
 
 ======================================================================
 
 ======================================================================
 
 ======================================================================
 
 Memory requirements /Mbyte/: 
               Minimal        Optimal
 Real*8:          0.0886         1.7985
 Integer:         3.2873
 Total:           3.3759         5.0858
 

 ************************ 2018-06-30 18:36:25 *************************
 Executing mrcc...

 **********************************************************************
 LR-CCS calculation                                                     
 
 
 OpenMP parallel version is running.
 Number of CPUs:  20
 Allocation of    1.8 Mbytes of memory...
 Number of spinorbitals:  44
 Number of alpha electrons:  5
 Number of beta  electrons:  2
 z-component of spin:  1.5
 Spatial symmetry: 8
 Convergence criterion:  1.0E-07
 Spatial symmetry of ground state:                      7
 Construction of occupation graphs...
 Number of excitations for irrep 1: 
 Number of 0-fold excitations: 1
 Number of 1-fold excitations: 24
 Total number of determinants: 25
 Number of excitations for irrep 2: 
 Number of 0-fold excitations: 0
 Number of 1-fold excitations: 21
 Total number of determinants: 21
 Calculation of coupling coefficients...
 Initial cluster amplitudes are generated.
 Length of intermediate file (Mbytes):       0.1
 Reading integral list from unit 55...
 Sorting integrals...
 Sorting integrals...
 Sorting integrals...
 Sorting integrals...
 Energy of reference determinant [au]:     -53.936685707890
 Calculation of diagonal elements of Hamiltonian...
 Calculation of MP denominators...
 
 Starting CC iteration...
 ======================================================================
 Norm of residual vector:     0.16179213
 CPU time [min]:     0.284                   Wall time [min]:     0.021
 
 Iteration  1  CC energy:   -53.96623725  Energy decrease:   0.02955155
 ======================================================================
 Norm of residual vector:     0.03177954
 CPU time [min]:     0.285                   Wall time [min]:     0.021
 
 Iteration  2  CC energy:   -53.96789094  Energy decrease:   0.00165369
 ======================================================================
 Norm of residual vector:     0.00569089
 CPU time [min]:     0.285                   Wall time [min]:     0.021
 
 Iteration  3  CC energy:   -53.96893817  Energy decrease:   0.00104723
 ======================================================================
 Norm of residual vector:     0.00067825
 CPU time [min]:     0.286                   Wall time [min]:     0.021
 
 Iteration  4  CC energy:   -53.96883396  Energy decrease:   0.00010421
 ======================================================================
 Norm of residual vector:     0.00014079
 CPU time [min]:     0.287                   Wall time [min]:     0.021
 
 Iteration  5  CC energy:   -53.96886834  Energy decrease:   0.00003438
 ======================================================================
 Norm of residual vector:     0.00004693
 CPU time [min]:     0.288                   Wall time [min]:     0.021
 
 Iteration  6  CC energy:   -53.96885769  Energy decrease:   0.00001065
 ======================================================================
 Norm of residual vector:     0.00001751
 CPU time [min]:     0.289                   Wall time [min]:     0.021
 
 Iteration  7  CC energy:   -53.96886170  Energy decrease:   0.00000400
 ======================================================================
 Norm of residual vector:     0.00000164
 CPU time [min]:     0.290                   Wall time [min]:     0.021
 
 Iteration  8  CC energy:   -53.96886138  Energy decrease:   0.00000032
 ======================================================================
 Norm of residual vector:     0.00000011
 CPU time [min]:     0.291                   Wall time [min]:     0.021
 
 Iteration  9  CC energy:   -53.96886138  Energy decrease:   0.00000001
 ======================================================================
 Norm of residual vector:     0.00000003
 CPU time [min]:     0.292                   Wall time [min]:     0.021
 
 Iteration 10  CC energy:   -53.96886139  Energy decrease:   0.00000001
 ======================================================================
 
 Iteration has converged in 10 steps.
 
 Final results:
 Total CCS energy [au]:              -53.968861390949
 Spin multiplicity:                     2
 
 
 
 Dominant cluster amplitudes
 Printing threshold:  1.00E-02
 
    1.000000  Reference determinant                                     
    0.102861  1b -> 5b                                                  
    0.010110  1b -> 11b                                                 
   -0.015456  1b -> 13b                                                 
   -0.033854  1b -> 17b                                                 
   -0.096792  2b -> 6b                                                  
    0.013929  2b -> 14b                                                 
    0.013143  1a -> 17a                                                 
   -0.011115  5a -> 11a                                                 
    0.018456  5a -> 13a                                                 
    0.021703  5a -> 17a                                                 
   -0.112981  2a -> 6a                                                  
   -0.019628  2a -> 14a                                                 
   -0.113797  4a -> 7a                                                  
   -0.023703  4a -> 15a                                                 
   -0.113797  3a -> 8a                                                  
   -0.023703  3a -> 16a                                                 
 
 Starting right-hand LR-CC iteration for root                      2 ...
 ======================================================================
 Norm of residual vector:     0.07791233      Convergence:   1.00000000
 CPU time [min]:     0.302                   Wall time [min]:     0.021
 
 Iteration  1  CI energy:   -53.94823796  Energy decrease:   0.02062343
 ======================================================================
 Norm of residual vector:     0.01952535      Convergence:   0.37411070
 CPU time [min]:     0.304                   Wall time [min]:     0.022
 
 Iteration  2  CI energy:   -53.96589911  Energy decrease:   0.01766116
 ======================================================================
 Norm of residual vector:     0.00128296      Convergence:   0.02305766
 CPU time [min]:     0.305                   Wall time [min]:     0.022
 
 Iteration  3  CI energy:   -53.96636752  Energy decrease:   0.00046841
 ======================================================================
 Norm of residual vector:     0.00014935      Convergence:   0.00101736
 CPU time [min]:     0.306                   Wall time [min]:     0.022
 
 Iteration  4  CI energy:   -53.96636868  Energy decrease:   0.00000116
 ======================================================================
 Norm of residual vector:     0.00000816      Convergence:   0.00010604
 CPU time [min]:     0.306                   Wall time [min]:     0.022
 
 Iteration  5  CI energy:   -53.96636905  Energy decrease:   0.00000037
 ======================================================================
 Norm of residual vector:     0.00000038      Convergence:   0.00000839
 CPU time [min]:     0.307                   Wall time [min]:     0.022
 
 Iteration  6  CI energy:   -53.96636905  Energy decrease:   4.3835E-09
 ======================================================================
 Norm of residual vector:     0.0000E+00      Convergence:   3.9637E-07
 CPU time [min]:     0.308                   Wall time [min]:     0.022
 
 Iteration  7  CI energy:   -53.96636905  Energy decrease:   2.0008E-09
 ======================================================================
 
 Iteration has converged in  7 steps.
 
 Final results:
 Total LR-CCS energy [au]:           -53.966369047167
 Excitation energy [eV]:           0.0678
 Excitation energy [cm^-1]:      547.01
 Absorption wavelength [nm]:   18281.33
 Spin multiplicity:                     2
 
 
 
 Dominant CI coefficients
 Printing threshold:  1.00E-02
 
   -0.362911  2b -> 5b                                                  
   -0.022237  2b -> 11b                                                 
    0.033995  2b -> 13b                                                 
   -0.017620  1b -> 6b                                                  
   -0.930054  5a -> 6a                                                  
    0.031555  5a -> 14a                                                 
 
 Starting right-hand LR-CC iteration for root                      3 ...
 ======================================================================
 Norm of residual vector:     0.06133234      Convergence:   1.00000000
 CPU time [min]:     0.308                   Wall time [min]:     0.022
 
 Iteration  1  CI energy:   -53.87853117  Energy decrease:   0.09033022
 ======================================================================
 Norm of residual vector:     0.02200166      Convergence:   0.36299141
 CPU time [min]:     0.309                   Wall time [min]:     0.022
 
 Iteration  2  CI energy:   -53.86810182  Energy decrease:   0.01042935
 ======================================================================
 Norm of residual vector:     0.00378517      Convergence:   0.02500391
 CPU time [min]:     0.309                   Wall time [min]:     0.022
 
 Iteration  3  CI energy:   -53.86857569  Energy decrease:   0.00047387
 ======================================================================
 Norm of residual vector:     0.00044496      Convergence:   0.00264718
 CPU time [min]:     0.310                   Wall time [min]:     0.022
 
 Iteration  4  CI energy:   -53.86860546  Energy decrease:   0.00002977
 ======================================================================
 Norm of residual vector:     0.00004732      Convergence:   0.00072079
 CPU time [min]:     0.311                   Wall time [min]:     0.022
 
 Iteration  5  CI energy:   -53.86860615  Energy decrease:   0.00000069
 ======================================================================
 Norm of residual vector:     0.00000263      Convergence:   0.00004475
 CPU time [min]:     0.311                   Wall time [min]:     0.022
 
 Iteration  6  CI energy:   -53.86860620  Energy decrease:   0.00000006
 ======================================================================
 Norm of residual vector:     0.00000015      Convergence:   0.00000232
 CPU time [min]:     0.312                   Wall time [min]:     0.022
 
 Iteration  7  CI energy:   -53.86860621  Energy decrease:   0.00000001
 ======================================================================
 Norm of residual vector:     0.0000E+00      Convergence:   1.2796E-07
 CPU time [min]:     0.313                   Wall time [min]:     0.022
 
 Iteration  8  CI energy:   -53.86860621  Energy decrease:   4.8067E-10
 ======================================================================
 
 Iteration has converged in  8 steps.
 
 Final results:
 Total LR-CCS energy [au]:           -53.868606211645
 Excitation energy [eV]:           2.7281
 Excitation energy [cm^-1]:    22003.47
 Absorption wavelength [nm]:     454.47
 Spin multiplicity:                     2
 
 
 
 Dominant CI coefficients
 Printing threshold:  1.00E-02
 
   -0.926613  2b -> 5b                                                  
   -0.011630  2b -> 13b                                                 
   -0.014161  2b -> 17b                                                 
    0.065929  1b -> 6b                                                  
    0.014840  2a -> 11a                                                 
   -0.024640  2a -> 13a                                                 
   -0.015302  2a -> 17a                                                 
   -0.014405  1a -> 14a                                                 
    0.365581  5a -> 6a                                                  
   -0.019877  5a -> 14a                                                 
   -0.024264  4a -> 10a                                                 
   -0.024264  3a -> 9a                                                  
 
 Starting right-hand LR-CC iteration for root                      4 ...
 ======================================================================
 Norm of residual vector:     0.17457755      Convergence:   1.00000000
 CPU time [min]:     0.313                   Wall time [min]:     0.022
 
 Iteration  1  CI energy:   -53.43800032  Energy decrease:   0.53086107
 ======================================================================
 Norm of residual vector:     0.04384590      Convergence:   0.24764501
 CPU time [min]:     0.314                   Wall time [min]:     0.022
 
 Iteration  2  CI energy:   -53.46760166  Energy decrease:   0.02960134
 ======================================================================
 Norm of residual vector:     0.00517204      Convergence:   0.06764140
 CPU time [min]:     0.314                   Wall time [min]:     0.022
 
 Iteration  3  CI energy:   -53.46992526  Energy decrease:   0.00232360
 ======================================================================
 Norm of residual vector:     0.00067338      Convergence:   0.00636487
 CPU time [min]:     0.315                   Wall time [min]:     0.022
 
 Iteration  4  CI energy:   -53.46992991  Energy decrease:   0.00000465
 ======================================================================
 Norm of residual vector:     0.00008486      Convergence:   0.00093701
 CPU time [min]:     0.315                   Wall time [min]:     0.022
 
 Iteration  5  CI energy:   -53.46992844  Energy decrease:   0.00000147
 ======================================================================
 Norm of residual vector:     0.00001399      Convergence:   0.00006525
 CPU time [min]:     0.316                   Wall time [min]:     0.022
 
 Iteration  6  CI energy:   -53.46992891  Energy decrease:   0.00000047
 ======================================================================
 Norm of residual vector:     0.00000312      Convergence:   0.00000864
 CPU time [min]:     0.317                   Wall time [min]:     0.022
 
 Iteration  7  CI energy:   -53.46992891  Energy decrease:   2.9480E-11
 ======================================================================
 Norm of residual vector:     0.00000055      Convergence:   0.00000073
 CPU time [min]:     0.318                   Wall time [min]:     0.022
 
 Iteration  8  CI energy:   -53.46992890  Energy decrease:   4.3407E-09
 ======================================================================
 Norm of residual vector:     0.0000E+00      Convergence:   7.6204E-08
 CPU time [min]:     0.318                   Wall time [min]:     0.022
 
 Iteration  9  CI energy:   -53.46992891  Energy decrease:   1.0884E-09
 ======================================================================
 
 Iteration has converged in  9 steps.
 
 Final results:
 Total LR-CCS energy [au]:           -53.469928905566
 Excitation energy [eV]:          13.5766
 Excitation energy [cm^-1]:   109503.03
 Absorption wavelength [nm]:      91.32
 Spin multiplicity:                     2
 
 Dominant CI coefficients
 Printing threshold:  1.00E-02
 
    0.053951  2b -> 5b                                                  
   -0.012041  2b -> 11b                                                 
    0.018408  2b -> 13b                                                 
    0.970940  1b -> 6b                                                  
    0.092964  1b -> 14b                                                 
   -0.061330  2a -> 11a                                                 
    0.101834  2a -> 13a                                                 
   -0.021484  2a -> 17a                                                 
    0.018675  2a -> 19a                                                 
   -0.033884  2a -> 22a                                                 
   -0.074309  1a -> 6a                                                  
   -0.019618  1a -> 14a                                                 
   -0.030842  5a -> 6a                                                  
    0.044841  5a -> 14a                                                 
    0.094881  4a -> 10a                                                 
   -0.032782  4a -> 18a                                                 
    0.094881  3a -> 9a                                                  
   -0.032782  3a -> 21a                                                 

 ************************ 2018-06-30 18:36:28 *************************
 Executing goldstone...

 Generation of CC equations in terms of H and T...
 Generation of antisymmetrized Goldstone diagrams...
 Number of diagrams in T^1 equations:    14
 Number of diagrams in T^2 equations:    31
 Translation of diagrams to factorized equations...
 Optimizing intermediate calculation...
 Optimizing right-hand EOMCC calculation...
 Number of floating-point operations per iteration step:   2.5012E+05
 Probable CPU time per iteration step (hours):      0.00
 Required memory (Mbytes):      19.5
 Number of intermediates:                                  84
 Number of intermediates to be stored:                     36
 Length of intermediate file (Mbytes):       0.5

 ************************ 2018-06-30 18:36:29 *************************
 Executing xmrcc...

 **********************************************************************
 CC(                     2 ) calculation 
 
 
 Allocation of 100.0 Mbytes of memory...
 Number of spinorbitals:                    44
 Number of alpha electrons:                        5
 Number of beta electrons:                         2
 z-component of spin:  1.5
 Spatial symmetry:                      8
 Convergence criterion:  1.0E-07
 Spatial symmetry of ground state:                      7
 Construction of occupation graphs...
 Number of                     0 -fold excitations:                      0
 Number of                     1 -fold excitations:                     21
 Number of                     2 -fold excitations:                    665
 Total number of configurations:                    686
 Number of ground state excitations: 
 Number of                     0 -fold excitations:                      1
 Number of                     1 -fold excitations:                     24
 Number of                     2 -fold excitations:                    672
 Total number of configurations:                    697
 Calculation of coupling coefficients...
 Length of intermediate file (Mbytes):       0.8
 
 ======================================================================
 
 ======================================================================
 
 ======================================================================
 
 ======================================================================
 
 Memory requirements /Mbyte/: 
               Minimal        Optimal
 Real*8:          0.8008         2.4510
 Integer:         3.4418
 Total:           4.2426         5.8928
 

 ************************ 2018-06-30 18:36:29 *************************
 Executing mrcc...

 **********************************************************************
 LR-CCSD calculation                                                    
 
 
 OpenMP parallel version is running.
 Number of CPUs:  20
 Allocation of    2.5 Mbytes of memory...
 Number of spinorbitals:  44
 Number of alpha electrons:  5
 Number of beta  electrons:  2
 z-component of spin:  1.5
 Spatial symmetry: 8
 Convergence criterion:  1.0E-07
 Spatial symmetry of ground state:                      7
 Construction of occupation graphs...
 Number of excitations for irrep 1: 
 Number of 0-fold excitations: 1
 Number of 1-fold excitations: 24
 Number of 2-fold excitations: 672
 Total number of determinants: 697
 Number of excitations for irrep 2: 
 Number of 0-fold excitations: 0
 Number of 1-fold excitations: 21
 Number of 2-fold excitations: 665
 Total number of determinants: 686
 Calculation of coupling coefficients...
 Initial cluster amplitudes are read from unit 16.
 Length of intermediate file (Mbytes):       0.8
 Reading integral list from unit 55...
 Sorting integrals...
 Sorting integrals...
 Sorting integrals...
 Sorting integrals...
 Energy of reference determinant [au]:     -53.936685707890
 Calculation of diagonal elements of Hamiltonian...
 Calculation of MP denominators...
 
 Starting CC iteration...
 ======================================================================
 Norm of residual vector:     0.59546677
 CPU time [min]:     0.147                   Wall time [min]:     0.012
 
 Iteration  1  CC energy:   -54.08665197  Energy decrease:   0.12207402
 ======================================================================
 Norm of residual vector:     0.10388896
 CPU time [min]:     0.177                   Wall time [min]:     0.013
 
 Iteration  2  CC energy:   -54.09865414  Energy decrease:   0.01200217
 ======================================================================
 Norm of residual vector:     0.05738980
 CPU time [min]:     0.207                   Wall time [min]:     0.015
 
 Iteration  3  CC energy:   -54.11226392  Energy decrease:   0.01360978
 ======================================================================
 Norm of residual vector:     0.03253337
 CPU time [min]:     0.238                   Wall time [min]:     0.016
 
 Iteration  4  CC energy:   -54.11853607  Energy decrease:   0.00627215
 ======================================================================
 Norm of residual vector:     0.01929554
 CPU time [min]:     0.263                   Wall time [min]:     0.018
 
 Iteration  5  CC energy:   -54.12211285  Energy decrease:   0.00357678
 ======================================================================
 Norm of residual vector:     0.01076910
 CPU time [min]:     0.283                   Wall time [min]:     0.019
 
 Iteration  6  CC energy:   -54.12450260  Energy decrease:   0.00238975
 ======================================================================
 Norm of residual vector:     0.00578108
 CPU time [min]:     0.303                   Wall time [min]:     0.020
 
 Iteration  7  CC energy:   -54.12542755  Energy decrease:   0.00092495
 ======================================================================
 Norm of residual vector:     0.00333492
 CPU time [min]:     0.323                   Wall time [min]:     0.021
 
 Iteration  8  CC energy:   -54.12560162  Energy decrease:   0.00017407
 ======================================================================
 Norm of residual vector:     0.00190400
 CPU time [min]:     0.342                   Wall time [min]:     0.022
 
 Iteration  9  CC energy:   -54.12562597  Energy decrease:   0.00002435
 ======================================================================
 Norm of residual vector:     0.00085207
 CPU time [min]:     0.361                   Wall time [min]:     0.023
 
 Iteration 10  CC energy:   -54.12568416  Energy decrease:   0.00005819
 ======================================================================
 Norm of residual vector:     0.00017754
 CPU time [min]:     0.379                   Wall time [min]:     0.024
 
 Iteration 11  CC energy:   -54.12567638  Energy decrease:   0.00000778
 ======================================================================
 Norm of residual vector:     0.00005263
 CPU time [min]:     0.398                   Wall time [min]:     0.025
 
 Iteration 12  CC energy:   -54.12568009  Energy decrease:   0.00000371
 ======================================================================
 Norm of residual vector:     0.00001770
 CPU time [min]:     0.417                   Wall time [min]:     0.026
 
 Iteration 13  CC energy:   -54.12568038  Energy decrease:   0.00000028
 ======================================================================
 Norm of residual vector:     0.00000634
 CPU time [min]:     0.436                   Wall time [min]:     0.027
 
 Iteration 14  CC energy:   -54.12568034  Energy decrease:   0.00000003
 ======================================================================
 Norm of residual vector:     0.00000205
 CPU time [min]:     0.455                   Wall time [min]:     0.028
 
 Iteration 15  CC energy:   -54.12568027  Energy decrease:   0.00000007
 ======================================================================
 Norm of residual vector:     0.00000074
 CPU time [min]:     0.473                   Wall time [min]:     0.029
 
 Iteration 16  CC energy:   -54.12568025  Energy decrease:   0.00000002
 ======================================================================
 Norm of residual vector:     0.00000025
 CPU time [min]:     0.493                   Wall time [min]:     0.030
 
 Iteration 17  CC energy:   -54.12568025  Energy decrease:   1.3705E-09
 ======================================================================
 Norm of residual vector:     0.00000010
 CPU time [min]:     0.510                   Wall time [min]:     0.031
 
 Iteration 18  CC energy:   -54.12568025  Energy decrease:   1.5989E-10
 ======================================================================
 
 Iteration has converged in 18 steps.
 
 Final results:
 Total CCSD energy [au]:             -54.125680250003
 Spin multiplicity:                     2
 
 
 
 Dominant cluster amplitudes
 Printing threshold:  1.00E-02
 
    1.000000  Reference determinant                                     
    0.088722  1b -> 5b                                                  
   -0.010673  1b -> 13b                                                 
   -0.027608  1b -> 17b                                                 
    0.214727  2b -> 6b                                                  
    0.062013  2b -> 14b                                                 
    0.014438  5a -> 13a                                                 
    0.016982  5a -> 17a                                                 
   -0.302048  2a -> 6a                                                  
   -0.029851  2a -> 14a                                                 
   -0.228305  4a -> 7a                                                  
   -0.031879  4a -> 15a                                                 
   -0.228305  3a -> 8a                                                  
   -0.031879  3a -> 16a                                                 
    0.024699  1b 2b -> 5b 6b                                            
    0.010507  1b 2b -> 3b 9b                                            
    0.012140  1b 2b -> 8b 9b                                            
    0.010507  1b 2b -> 4b 10b                                           
    0.012140  1b 2b -> 7b 10b                                           
    0.010333  1b 2b -> 6b 17b                                           
    0.013351  1a 1b -> 17a 5b                                           
   -0.019468  1a 1b -> 17a 17b                                          
    0.012355  2a 2b -> 13a 11b                                          
    0.011193  2a 2b -> 11a 13b                                          
   -0.021303  2a 2b -> 13a 13b                                          
   -0.017691  1a 1b -> 6a 6b                                            
   -0.012445  1a 1b -> 6a 14b                                           
   -0.012448  1a 1b -> 14a 14b                                          
    0.012409  5a 1b -> 6a 6b                                            
    0.010695  5a 1b -> 14a 6b                                           
   -0.185739  2a 2b -> 6a 6b                                            
   -0.033679  2a 2b -> 14a 6b                                           
   -0.061969  2a 2b -> 6a 14b                                           
   -0.032233  2a 2b -> 14a 14b                                          
   -0.020277  1a 1b -> 7a 4b                                            
   -0.028176  1a 1b -> 7a 7b                                            
   -0.011733  1a 1b -> 15a 7b                                           
   -0.015749  1a 1b -> 7a 15b                                           
   -0.012872  1a 1b -> 15a 15b                                          
    0.044308  5a 1b -> 7a 4b                                            
    0.012526  5a 1b -> 15a 4b                                           
    0.028621  5a 1b -> 7a 7b                                            
    0.011295  5a 1b -> 15a 7b                                           
   -0.017409  2a 2b -> 7a 4b                                            
   -0.025936  2a 2b -> 7a 7b                                            
   -0.022228  2a 2b -> 10a 10b                                          
   -0.020277  1a 1b -> 8a 3b                                            
   -0.028176  1a 1b -> 8a 8b                                            
   -0.011733  1a 1b -> 16a 8b                                           
   -0.015749  1a 1b -> 8a 16b                                           
   -0.012872  1a 1b -> 16a 16b                                          
    0.044308  5a 1b -> 8a 3b                                            
    0.012526  5a 1b -> 16a 3b                                           
    0.028621  5a 1b -> 8a 8b                                            
    0.011295  5a 1b -> 16a 8b                                           
   -0.017409  2a 2b -> 8a 3b                                            
   -0.025936  2a 2b -> 8a 8b                                            
   -0.022228  2a 2b -> 9a 9b                                            
   -0.020389  1a 2b -> 17a 6b                                           
   -0.021839  1a 2b -> 17a 14b                                          
    0.020075  5a 2b -> 17a 6b                                           
    0.015231  2a 1b -> 13a 6b                                           
   -0.017322  2a 1b -> 22a 6b                                           
   -0.012801  2a 1b -> 17a 14b                                          
    0.022078  1a 2b -> 6a 5b                                            
   -0.010190  1a 2b -> 6a 17b                                           
   -0.010555  1a 2b -> 6a 19b                                           
    0.129652  5a 2b -> 6a 5b                                            
    0.018331  5a 2b -> 6a 11b                                           
   -0.028023  5a 2b -> 6a 13b                                           
[...]
   -0.011314  1a -> 14a                                                 
    0.012031  5a -> 14a                                                 
    0.023387  4a -> 10a                                                 
    0.023059  3a -> 9a                                                  
    0.166277  1b 2b -> 4b 7b                                            
    0.169255  1b 2b -> 3b 8b                                            
    0.024103  1b 2b -> 4b 15b                                           
    0.024482  1b 2b -> 3b 16b                                           
   -0.095935  1a 2b -> 6a 6b                                            
    0.014047  1a 2b -> 14a 6b                                           
   -0.021079  1a 2b -> 6a 14b                                           
   -0.014430  5a 2b -> 14a 6b                                           
    0.016460  5a 2b -> 6a 14b                                           
    0.018671  2a 1b -> 6a 6b                                            
   -0.027527  2a 1b -> 6a 14b                                           
   -0.012770  2a 1b -> 14a 14b                                          
    0.153080  1a 2b -> 7a 4b                                            
    0.083809  1a 2b -> 7a 7b                                            
    0.020429  1a 2b -> 7a 15b                                           
   -0.112088  2a 1b -> 7a 4b                                            
   -0.069098  2a 1b -> 7a 7b                                            
   -0.018847  2a 1b -> 7a 15b                                           
    0.155523  1a 2b -> 8a 3b                                            
    0.084856  1a 2b -> 8a 8b                                            
    0.020584  1a 2b -> 8a 16b                                           
   -0.113802  2a 1b -> 8a 3b                                            
   -0.070169  2a 1b -> 8a 8b                                            
   -0.019104  2a 1b -> 8a 16b                                           
    0.018395  2a 2b -> 11a 6b                                           
   -0.030452  2a 2b -> 13a 6b                                           
    0.026348  1a 1b -> 6a 5b                                            
   -0.022874  1a 1b -> 6a 17b                                           
   -0.310473  5a 1b -> 6a 5b                                            
    0.015788  5a 1b -> 6a 17b                                           
   -0.020683  2a 2b -> 6a 11b                                           
    0.031585  2a 2b -> 6a 13b                                           
   -0.010405  2a 2b -> 6a 19b                                           
   -0.015395  2a 2b -> 7a 10b                                           
   -0.010887  2a 2b -> 10a 4b                                           
    0.011110  2a 2b -> 10a 7b                                           
   -0.015746  2a 2b -> 8a 9b                                            
   -0.011072  2a 2b -> 9a 3b                                            
    0.011261  2a 2b -> 9a 8b                                            
   -0.014886  4a 2b -> 13a 7b                                           
    0.032060  4a 2b -> 6a 10b                                           
   -0.013348  4a 2b -> 6a 18b                                           
    0.015970  4a 2b -> 7a 13b                                           
   -0.028593  4a 2b -> 10a 6b                                           
    0.010614  4a 2b -> 18a 6b                                           
   -0.016510  4a 2b -> 8a 12b                                           
   -0.011411  4a 2b -> 12a 3b                                           
    0.011849  4a 2b -> 12a 8b                                           
   -0.223025  4a 1b -> 6a 4b                                            
   -0.204770  4a 1b -> 6a 7b                                            
   -0.065462  4a 1b -> 6a 15b                                           
    0.058100  4a 1b -> 7a 6b                                            
    0.013566  4a 1b -> 15a 6b                                           
    0.015671  3a 2b -> 11a 8b                                           
    0.032159  3a 2b -> 6a 9b                                            
   -0.013307  3a 2b -> 6a 21b                                           
   -0.015933  3a 2b -> 7a 12b                                           
   -0.018419  3a 2b -> 8a 11b                                           
   -0.028447  3a 2b -> 9a 6b                                            
    0.010642  3a 2b -> 21a 6b                                           
   -0.011440  3a 2b -> 12a 4b                                           
    0.011766  3a 2b -> 12a 7b                                           
   -0.223153  3a 1b -> 6a 3b                                            
   -0.204630  3a 1b -> 6a 8b                                            
   -0.065478  3a 1b -> 6a 16b                                           
    0.057939  3a 1b -> 8a 6b                                            
    0.013558  3a 1b -> 16a 6b                                           
   -0.012576  1a 2a -> 6a 14a                                           
    0.015324  2a 5a -> 6a 14a                                           
    0.010725  1a 5a -> 6a 17a                                           
    0.029999  2a 4a -> 6a 10a                                           
   -0.012019  2a 4a -> 8a 12a                                           
   -0.011249  2a 4a -> 6a 18a                                           
   -0.062436  1a 4a -> 6a 7a                                            
   -0.019866  1a 4a -> 6a 15a                                           
    0.029986  2a 3a -> 6a 9a                                            
   -0.011181  2a 3a -> 8a 11a                                           
   -0.011855  2a 3a -> 7a 12a                                           
   -0.011255  2a 3a -> 6a 21a                                           
   -0.062288  1a 3a -> 6a 8a                                            
   -0.019860  1a 3a -> 6a 16a                                           
    0.023224  1a 1b 2b -> 6a 5b 6b                                      
   -0.050961  5a 1b 2b -> 6a 5b 6b                                      
    0.010984  5a 1b 2b -> 6a 8b 9b                                      
    0.010928  5a 1b 2b -> 6a 7b 10b                                     
    0.012230  1a 1b 2b -> 7a 4b 5b                                      
   -0.011237  1a 1b 2b -> 7a 4b 17b                                     
   -0.152778  5a 1b 2b -> 7a 4b 5b                                      
    0.083744  5a 1b 2b -> 7a 5b 7b                                      
    0.016115  5a 1b 2b -> 7a 5b 15b                                     
    0.012866  1a 1b 2b -> 8a 3b 5b                                      
   -0.011419  1a 1b 2b -> 8a 3b 17b                                     
   -0.155419  5a 1b 2b -> 8a 3b 5b                                      
    0.085618  5a 1b 2b -> 8a 5b 8b                                      
    0.016540  5a 1b 2b -> 8a 5b 16b                                     
    0.039009  2a 1b 2b -> 6a 4b 7b                                      
    0.039773  2a 1b 2b -> 6a 3b 8b                                      
   -0.077973  2a 1b 2b -> 7a 4b 6b                                      
    0.040440  2a 1b 2b -> 7a 6b 7b                                      
   -0.025774  2a 1b 2b -> 7a 4b 14b                                     
   -0.079173  2a 1b 2b -> 8a 3b 6b                                      
    0.040947  2a 1b 2b -> 8a 6b 8b                                      
   -0.026177  2a 1b 2b -> 8a 3b 14b                                     
   -0.107929  4a 1b 2b -> 6a 4b 6b                                      
    0.085246  4a 1b 2b -> 6a 6b 7b                                      
   -0.023960  4a 1b 2b -> 6a 4b 14b                                     
   -0.012224  4a 1b 2b -> 6a 7b 14b                                     
    0.016250  4a 1b 2b -> 6a 6b 15b                                     
    0.032962  4a 1b 2b -> 7a 3b 8b                                      
   -0.015894  4a 1b 2b -> 7a 4b 15b                                     
   -0.110592  4a 1b 2b -> 8a 3b 4b                                      
   -0.104449  4a 1b 2b -> 8a 3b 7b                                      
    0.064810  4a 1b 2b -> 8a 4b 8b                                      
    0.054477  4a 1b 2b -> 8a 7b 8b                                      
   -0.033227  4a 1b 2b -> 8a 3b 15b                                     
   -0.011750  4a 1b 2b -> 8a 8b 15b                                     
    0.015413  4a 1b 2b -> 8a 4b 16b                                     
    0.011429  4a 1b 2b -> 8a 7b 16b                                     
   -0.107809  3a 1b 2b -> 6a 3b 6b                                      
    0.085178  3a 1b 2b -> 6a 6b 8b                                      
   -0.023953  3a 1b 2b -> 6a 3b 14b                                     
   -0.012226  3a 1b 2b -> 6a 8b 14b                                     
    0.016235  3a 1b 2b -> 6a 6b 16b                                     
    0.108519  3a 1b 2b -> 7a 3b 4b                                      
    0.064242  3a 1b 2b -> 7a 3b 7b                                      
   -0.103180  3a 1b 2b -> 7a 4b 8b                                      
   -0.053535  3a 1b 2b -> 7a 7b 8b                                      
    0.015169  3a 1b 2b -> 7a 3b 15b                                     
    0.011322  3a 1b 2b -> 7a 8b 15b                                     
   -0.032699  3a 1b 2b -> 7a 4b 16b                                     
   -0.011612  3a 1b 2b -> 7a 7b 16b                                     
    0.032585  3a 1b 2b -> 8a 4b 7b                                      
   -0.016073  3a 1b 2b -> 8a 3b 16b                                     
    0.019777  2a 5a 1b -> 6a 14a 5b                                     
    0.016065  2a 5a 2b -> 8a 9a 5b                                      
    0.015823  2a 5a 2b -> 7a 10a 5b                                     
    0.018575  2a 5a 2b -> 6a 11a 5b                                     
   -0.030794  2a 5a 2b -> 6a 13a 5b                                     
    0.015764  1a 5a 1b -> 6a 7a 4b                                      
   -0.046891  1a 2a 2b -> 6a 7a 4b                                      
   -0.021134  1a 2a 2b -> 6a 7a 7b                                      
    0.015804  1a 5a 1b -> 6a 8a 3b                                      
   -0.047635  1a 2a 2b -> 6a 8a 3b                                      
   -0.021425  1a 2a 2b -> 6a 8a 8b                                      
    0.014536  4a 5a 2b -> 6a 14a 4b                                     
    0.010654  4a 5a 2b -> 6a 14a 7b                                     
    0.014994  2a 4a 1b -> 6a 14a 4b                                     
   -0.029530  4a 5a 2b -> 6a 10a 5b                                     
    0.016690  4a 5a 2b -> 8a 12a 5b                                     
   -0.016227  4a 5a 2b -> 7a 13a 5b                                     
    0.011020  4a 5a 2b -> 6a 18a 5b                                     
   -0.038882  1a 4a 2b -> 6a 7a 6b                                      
   -0.033545  1a 4a 2b -> 7a 8a 3b                                      
    0.010090  1a 4a 2b -> 8a 15a 3b                                     
   -0.013104  1a 4a 2b -> 7a 8a 8b                                      
    0.026544  2a 4a 1b -> 7a 8a 3b                                      
    0.012834  2a 4a 1b -> 7a 8a 8b                                      
    0.011033  4a 5a 1b -> 6a 17a 4b                                     
    0.011314  2a 4a 2b -> 8a 9a 4b                                      
    0.014043  2a 4a 2b -> 7a 10a 4b                                     
    0.017123  2a 4a 2b -> 6a 11a 4b                                     
   -0.022247  2a 4a 2b -> 6a 13a 4b                                     
    0.010759  2a 4a 2b -> 8a 9a 7b                                      
    0.011770  2a 4a 2b -> 6a 11a 7b                                     
   -0.026339  2a 4a 2b -> 6a 13a 7b                                     
    0.012302  2a 4a 2b -> 6a 10a 6b                                     
    0.011280  2a 4a 2b -> 7a 13a 6b                                     
    0.015151  1a 4a 1b -> 6a 7a 5b                                      
    0.062093  4a 5a 1b -> 6a 7a 5b                                      
    0.019894  4a 5a 1b -> 6a 15a 5b                                     
    0.011312  2a 4a 2b -> 6a 7a 13b                                     
    0.014487  3a 5a 2b -> 6a 14a 3b                                     
    0.010656  3a 5a 2b -> 6a 14a 8b                                     
    0.014970  2a 3a 1b -> 6a 14a 3b                                     
   -0.029591  3a 5a 2b -> 6a 9a 5b                                      
    0.019084  3a 5a 2b -> 8a 11a 5b                                     
    0.016470  3a 5a 2b -> 7a 12a 5b                                     
    0.011010  3a 5a 2b -> 6a 21a 5b                                     
   -0.038925  1a 3a 2b -> 6a 8a 6b                                      
    0.033232  1a 3a 2b -> 7a 8a 4b                                      
    0.012976  1a 3a 2b -> 7a 8a 7b                                      
   -0.026172  2a 3a 1b -> 7a 8a 4b                                      
   -0.012718  2a 3a 1b -> 7a 8a 7b                                      
    0.011027  3a 5a 1b -> 6a 17a 3b                                     
    0.014126  2a 3a 2b -> 8a 9a 3b                                      
    0.011123  2a 3a 2b -> 7a 10a 3b                                     
    0.011564  2a 3a 2b -> 6a 11a 3b                                     
   -0.025377  2a 3a 2b -> 6a 13a 3b                                     
    0.010609  2a 3a 2b -> 7a 10a 8b                                     
    0.017842  2a 3a 2b -> 6a 11a 8b                                     
   -0.022878  2a 3a 2b -> 6a 13a 8b                                     
    0.012329  2a 3a 2b -> 6a 9a 6b                                      
   -0.011230  2a 3a 2b -> 8a 11a 6b                                     
    0.015273  1a 3a 1b -> 6a 8a 5b                                      
    0.062349  3a 5a 1b -> 6a 8a 5b                                      
    0.019912  3a 5a 1b -> 6a 16a 5b                                     
    0.024978  3a 4a 2b -> 6a 10a 3b                                     
   -0.014273  3a 4a 2b -> 8a 12a 3b                                     
    0.011814  3a 4a 2b -> 7a 13a 3b                                     
   -0.010155  3a 4a 2b -> 6a 18a 3b                                     
    0.023552  3a 4a 2b -> 6a 10a 8b                                     
    0.010506  3a 4a 2b -> 7a 13a 8b                                     
   -0.024995  3a 4a 2b -> 6a 9a 4b                                      
    0.015069  3a 4a 2b -> 8a 11a 4b                                     
    0.014237  3a 4a 2b -> 7a 12a 4b                                     
    0.010157  3a 4a 2b -> 6a 21a 4b                                     
   -0.023507  3a 4a 2b -> 6a 9a 7b                                      
    0.011043  3a 4a 2b -> 8a 11a 7b                                     
   -0.048365  3a 4a 1b -> 6a 7a 3b                                      
   -0.018393  3a 4a 1b -> 6a 15a 3b                                     
   -0.039223  3a 4a 1b -> 6a 7a 8b                                      
   -0.011275  3a 4a 1b -> 6a 15a 8b                                     
    0.048369  3a 4a 1b -> 6a 8a 4b                                      
    0.018402  3a 4a 1b -> 6a 16a 4b                                     
    0.039183  3a 4a 1b -> 6a 8a 7b                                      
    0.011262  3a 4a 1b -> 6a 16a 7b                                     
   -0.020285  3a 4a 1b -> 7a 8a 6b                                      
    0.023742  1a 3a 4a -> 6a 7a 8a                                      
   -0.015072  1a 5a 1b 2b -> 7a 8a 3b 4b                                
   -0.061968  2a 5a 1b 2b -> 6a 7a 4b 5b                                
    0.030206  2a 5a 1b 2b -> 6a 7a 5b 7b                                
   -0.062946  2a 5a 1b 2b -> 6a 8a 3b 5b                                
    0.030621  2a 5a 1b 2b -> 6a 8a 5b 8b                                
    0.010214  4a 5a 1b 2b -> 7a 15a 4b 5b                               
    0.013456  1a 4a 1b 2b -> 6a 7a 5b 6b                                
    0.024445  4a 5a 1b 2b -> 6a 7a 5b 6b                                
   -0.033554  4a 5a 1b 2b -> 7a 8a 3b 5b                                
    0.010104  4a 5a 1b 2b -> 8a 15a 3b 5b                               
    0.012595  4a 5a 1b 2b -> 7a 8a 5b 8b                                
    0.014060  2a 4a 1b 2b -> 6a 7a 3b 8b                                
   -0.027118  2a 4a 1b 2b -> 6a 8a 3b 4b                                
   -0.021202  2a 4a 1b 2b -> 6a 8a 3b 7b                                
    0.012910  2a 4a 1b 2b -> 6a 8a 4b 8b                                
    0.028660  2a 4a 1b 2b -> 7a 8a 3b 6b                                
   -0.012585  2a 4a 1b 2b -> 7a 8a 6b 8b                                
    0.010415  3a 5a 1b 2b -> 8a 16a 3b 5b                               
    0.013442  1a 3a 1b 2b -> 6a 8a 5b 6b                                
    0.024173  3a 5a 1b 2b -> 6a 8a 5b 6b                                
    0.033092  3a 5a 1b 2b -> 7a 8a 4b 5b                                
   -0.012790  3a 5a 1b 2b -> 7a 8a 5b 7b                                
    0.026840  2a 3a 1b 2b -> 6a 7a 3b 4b                                
    0.012629  2a 3a 1b 2b -> 6a 7a 3b 7b                                
   -0.020788  2a 3a 1b 2b -> 6a 7a 4b 8b                                
    0.013894  2a 3a 1b 2b -> 6a 8a 4b 7b                                
   -0.028258  2a 3a 1b 2b -> 7a 8a 4b 6b                                
    0.012445  2a 3a 1b 2b -> 7a 8a 6b 7b                                
   -0.039983  3a 4a 1b 2b -> 6a 7a 3b 6b                                
    0.029523  3a 4a 1b 2b -> 6a 7a 6b 8b                                
    0.039955  3a 4a 1b 2b -> 6a 8a 4b 6b                                
   -0.029487  3a 4a 1b 2b -> 6a 8a 6b 7b                                
   -0.011932  2a 4a 5a 2b -> 6a 7a 13a 5b                               
    0.017193  1a 2a 4a 2b -> 6a 7a 8a 3b                                
    0.010830  2a 3a 5a 2b -> 6a 8a 11a 5b                               
   -0.016926  1a 2a 3a 2b -> 6a 7a 8a 4b                                
    0.021824  1a 3a 4a 2b -> 6a 7a 8a 6b                                
    0.023363  3a 4a 5a 1b -> 6a 7a 8a 5b                                
   -0.021727  2a 4a 5a 1b 2b -> 6a 7a 8a 3b 5b                          
    0.021467  2a 3a 5a 1b 2b -> 6a 7a 8a 4b 5b                          
    0.014401  3a 4a 5a 1b 2b -> 6a 7a 8a 5b 6b                          
 
 ************************ 2018-06-30 19:04:43 *************************
                      Normal termination of mrcc.
 **********************************************************************
--executable dmrcc finished with status     0 in     1713.43 seconds (walltime).
  The final electronic energy is       -53.655687467536737 a.u. 
  This computation required                         1716.84 seconds (walltime).
--- SharcNET Job Epilogue ---
Job completed successfully.
               jobid: 1549835
               resid: 3029186
         exit status: 0
      allocated time: 1717.9
           user time: 19721.2
         system time: 6796.71
peak rss=624545792; peak vsz=624545792 (bytes)
atime=1717.9; utime=19721.2; stime=6796.71; exit=0
