#INFO: **** input file is /Users/deyanmihaylov/Documents/Work/pyscf_geometry/QCBugs/Issue024/input.py ****
#!/usr/bin/python

import pyscf as pyscf
import sys as sys
from pyscf import scf, cc
from pyscf.lib import logger

neutralMolecule = pyscf.M(atom = [['O', (0,0,0)]], basis = 'STO-3G', verbose = 9, charge = 0, spin = 2)
neutralMoleculeHF = scf.UHF(neutralMolecule).run()

logObject = logger.new_logger(neutralMoleculeHF) # Creates a new logger object
orbitals, _, stability, _  = neutralMoleculeHF.stability(return_status = True) # Returns four variables: Internal MO, External MO, Internal Stability, External Stability
#INFO: ******************** input file end ********************


System: uname_result(system='Darwin', node='Deyans-MBP-Home.lan', release='22.1.0', version='Darwin Kernel Version 22.1.0: Sun Oct  9 20:14:54 PDT 2022; root:xnu-8792.41.9~2/RELEASE_X86_64', machine='x86_64')  Threads 8
Python 3.9.16 (main, Mar  8 2023, 04:29:44) 
[Clang 14.0.6 ]
numpy 1.24.3  scipy 1.10.1
Date: Mon Jul 10 23:40:31 2023
PySCF version 2.1.1
PySCF path  /Users/deyanmihaylov/opt/anaconda3/envs/pyscf_geom_env/lib/python3.9/site-packages/pyscf

[CONFIG] DEBUG = False
[CONFIG] MAX_MEMORY = 4000
[CONFIG] TMPDIR = /var/folders/v7/w4c0kx6d5bq1lvxw1rnqy7br0000gp/T/
[CONFIG] UNIT = angstrom
[CONFIG] VERBOSE = 3
[CONFIG] conf_file = /Users/deyanmihaylov/.pyscf_conf.py
[CONFIG] pyscf_numpy_backend = jax
[CONFIG] pyscf_scipy_backend = jax
[CONFIG] pyscf_scipy_linalg_backend = pyscfad
[CONFIG] pyscfad = True
[CONFIG] pyscfad_ccsd_implicit_diff = True
[CONFIG] pyscfad_scf_implicit_diff = True
[INPUT] verbose = 9
[INPUT] max_memory = 4000 
[INPUT] num. atoms = 1
[INPUT] num. electrons = 8
[INPUT] charge = 0
[INPUT] spin (= nelec alpha-beta = 2S) = 2
[INPUT] symmetry False subgroup None
[INPUT] Mole.unit = angstrom
[INPUT] Symbol           X                Y                Z      unit          X                Y                Z       unit  Magmom
[INPUT]  1 O      0.000000000000   0.000000000000   0.000000000000 AA    0.000000000000   0.000000000000   0.000000000000 Bohr   0.0
[INPUT] ---------------- BASIS SET ---------------- 
[INPUT] l, kappa, [nprim/nctr], expnt,             c_1 c_2 ...
[INPUT] O
[INPUT] 0    0    [3    /1   ]  130.70932         0.15432897
                                23.808861         0.53532814
                                6.4436083         0.44463454
[INPUT] 0    0    [3    /1   ]  5.0331513         -0.09996723
                                1.1695961         0.39951283
                                0.380389          0.70011547
[INPUT] 1    0    [3    /1   ]  5.0331513         0.15591627
                                1.1695961         0.60768372
                                0.380389          0.39195739

nuclear repulsion = 0
number of shells = 3
number of NR pGTOs = 15
number of NR cGTOs = 5
basis = STO-3G
ecp = {}
bas 0, expnt(s) = [130.70932    23.808861    6.4436083]
bas 1, expnt(s) = [5.0331513 1.1695961 0.380389 ]
bas 2, expnt(s) = [5.0331513 1.1695961 0.380389 ]
CPU time:         1.33
arg.atm = [[ 8 20  1 23  0  0]]
arg.bas = [[ 0  0  3  1  0 24 27  0]
 [ 0  0  3  1  0 30 33  0]
 [ 0  1  3  1  0 36 39  0]]
arg.env = [  0.           0.           0.           0.           0.
   0.           0.           0.           0.           0.
   0.           0.           0.           0.           0.
   0.           0.           0.           0.           0.
   0.           0.           0.           0.         130.70932
  23.808861     6.4436083   15.07274649  14.57770167   4.54323359
   5.0331513    1.1695961    0.380389    -0.848697     1.13520079
   0.85675304   5.0331513    1.1695961    0.380389     3.42906571
   2.15628856   0.34159239]
ecpbas  = []


******** <class 'pyscf.scf.uhf.UHF'> ********
method = UHF
initial guess = minao
damping factor = 0
level_shift factor = 0
DIIS = <class 'pyscf.scf.diis.CDIIS'>
diis_start_cycle = 1
diis_space = 8
SCF conv_tol = 1e-09
SCF conv_tol_grad = None
SCF max_cycles = 50
direct_scf = True
direct_scf_tol = 1e-13
chkfile to save SCF result = /var/folders/v7/w4c0kx6d5bq1lvxw1rnqy7br0000gp/T/tmpknld1fiy
max_memory 4000 MB (current use 0 MB)
number electrons alpha = 5  beta = 3
Set gradient conv threshold to 3.16228e-05
Nelec from initial guess = (3.931485852271509, 3.931485852271509)
E1 = -101.97003513098412  Ecoul = 28.793540330271846
init E= -73.1764948007123
cond(S) = 1.6202152685783147
    CPU time for initialize scf      0.06 sec, wall time      0.04 sec
multiplicity <S^2> = 2  2S+1 = 3
E1 = -102.87935539889499  Ecoul = 29.075205165639048
cycle= 1 E= -73.8041502332559  delta_E= -0.628  |g|=    0  |ddm|= 1.16
    CPU time for cycle= 1      0.02 sec, wall time      0.01 sec
diis-norm(errvec)=1.77636e-15
diis-c [-3.15544362e-30  1.00000000e+00]
multiplicity <S^2> = 2  2S+1 = 3
E1 = -102.87935539889497  Ecoul = 29.07520516563903
cycle= 2 E= -73.8041502332559  delta_E=    0  |g|=    0  |ddm|= 8.95e-16
    CPU time for cycle= 2      0.02 sec, wall time      0.01 sec
multiplicity <S^2> = 2  2S+1 = 3
E1 = -102.87935539889497  Ecoul = 29.07520516563904
Extra cycle  E= -73.8041502332559  delta_E=    0  |g|=    0  |ddm|= 2.36e-16
    CPU time for scf_cycle      0.12 sec, wall time      0.07 sec
    CPU time for SCF      0.12 sec, wall time      0.07 sec
converged SCF energy = -73.8041502332559  <S^2> = 2  2S+1 = 3
tol 0.0001  toloose 0.01
max_cycle 50  max_space 12  max_memory 2000  incore True

WARN: QR decomposition removed 1 vectors.  The davidson may fail.

