 &FCI NORB=   7,NELEC=10,MS2=0,
  ORBSYM=0,0,3,0,2,0,3
  ISYM=1,
 &END
 4.744502186719134    1    1    1    1
 -0.4166504877970077    1    1    2    1
 1.004568572452148    1    1    2    2
 -4.995827591913009e-18    1    1    3    1
 -2.04960425187876e-17    1    1    3    2
 0.7999514202870577    1    1    3    3
 0.183576182623532    1    1    4    1
 -0.128411144218037    1    1    4    2
 1.316136607991279e-16    1    1    4    3
 0.9998735574343692    1    1    4    4
 1.225323825216014e-17    1    1    5    3
 1.115336241231624    1    1    5    5
 0.2380287233084223    1    1    6    1
 -0.3083383571223318    1    1    6    2
 -1.597102433854869e-16    1    1    6    3
 -0.2193247884608604    1    1    6    4
 0.8026517550651449    1    1    6    6
 -2.645453300864631e-17    1    1    7    1
 -1.040834085586084e-17    1    1    7    2
 -0.3624165782220111    1    1    7    3
 -1.595945597898663e-16    1    1    7    4
 2.308260839865552e-17    1    1    7    5
 4.024558464266192e-16    1    1    7    6
 0.8690157461264704    1    1    7    7
 -0.4166504877970079    2    1    1    1
 0.05817529090641036    2    1    2    1
 -0.01297181315390094    2    1    2    2
 1.663841388885248e-18    2    1    3    1
 -0.004406052645278842    2    1    3    3
 -0.02249378793562747    2    1    4    1
 0.009211961991887447    2    1    4    2
 -3.143720357445667e-17    2    1    4    3
 -0.01356677348823723    2    1    4    4
 -0.0116941619223049    2    1    5    5
 -0.03580346516593162    2    1    6    1
 0.00664841602522988    2    1    6    2
 2.211612873344241e-18    2    1    6    3
 0.002232134492390965    2    1    6    4
 -0.006978274483617482    2    1    6    6
 1.705924355770161e-18    2    1    7    1
 1.56396163381034e-17    2    1    7    2
 0.007503975502428811    2    1    7    3
 2.932766876573289e-17    2    1    7    4
 -5.648693318649478e-17    2    1    7    6
 -0.009401774264014277    2    1    7    7
 1.004568572452148    2    2    1    1
 -0.01297181315390094    2    2    2    1
 0.7281718377417467    2    2    2    2
 -3.274943824891286e-18    2    2    3    1
 4.121406795022952e-17    2    2    3    2
 0.6451620395842322    2    2    3    3
 0.01605297047365533    2    2    4    1
 0.004096939912801095    2    2    4    2
 3.195069558179345e-17    2    2    4    3
 0.6756770561239245    2    2    4    4
 1.110972290806427e-17    2    2    5    3
 0.7474037049760133    2    2    5    5
 0.0007856984699085461    2    2    6    1
 -0.1429056981420397    2    2    6    2
 -4.157707526442576e-17    2    2    6    3
 -0.09543528541512433    2    2    6    4
 0.6141501835482587    2    2    6    6
 -5.095750210681871e-18    2    2    7    1
 1.040834085586084e-17    2    2    7    2
 -0.1383021575433798    2    2    7    3
 1.804112415015879e-16    2    2    7    4
 1.991952818542579e-17    2    2    7    5
 -2.636779683484747e-16    2    2    7    6
 0.6242543517629887    2    2    7    7
 -2.069483180908248e-17    3    1    1    1
 -8.494510735398754e-18    3    1    2    2
 0.01099384996382238    3    1    3    1
 0.01776537427168941    3    1    3    2
 -5.695541996290698e-18    3    1    3    3
 2.247136395018957e-18    3    1    4    1
 -1.040876154229523e-18    3    1    4    2
 -0.003438747821461434    3    1    4    3
 3.49626602532129e-18    3    1    4    4
 -1.101474809984285e-18    3    1    5    5
 -2.088873714587662e-18    3    1    6    1
 -0.003148604209996354    3    1    6    3
 -0.01531631786085814    3    1    7    1
 -0.01387769750897774    3    1    7    2
 -1.084202172485504e-18    3    1    7    3
 0.009633876765567486    3    1    7    4
 0.009210997611568707    3    1    7    6
 6.505213034913027e-18    3    1    7    7
 -2.492887968355773e-17    3    2    1    1
 1.765965309530059e-18    3    2    2    1
 -1.971380623617122e-17    3    2    2    2
 0.01776537427168943    3    2    3    1
 0.1444360128515045    3    2    3    2
 -3.894505998328209e-17    3    2    3    3
 1.225074122712952e-18    3    2    4    1
 2.568798175039724e-18    3    2    4    2
 0.0199759622194622    3    2    4    3
 7.952734706555373e-18    3    2    4    4
 3.605370117543804e-18    3    2    5    2
 9.858180219569981e-18    3    2    5    5
 -7.83447638806459e-18    3    2    6    1
 -1.660982652656916e-17    3    2    6    2
 0.04012896107515782    3    2    6    3
 2.152551805295044e-17    3    2    6    4
 1.534132331382578e-18    3    2    6    5
 -6.597915068228192e-17    3    2    6    6
 -0.0231063270388361    3    2    7    1
 -0.04033812788351975    3    2    7    2
 -1.040834085586084e-17    3    2    7    3
 0.07709309930980182    3    2    7    4
 0.09861984639611618    3    2    7    6
 -4.163336342344337e-17    3    2    7    7
 0.7999514202870578    3    3    1    1
 -0.004406052645278883    3    3    2    1
 0.6451620395842325    3    3    2    2
 -5.411060743181361e-18    3    3    3    1
 -8.873610282804358e-17    3    3    3    2
 0.6330178802780959    3    3    3    3
 0.006468746425229448    3    3    4    1
 0.006908243498093375    3    3    4    2
 -2.388893134517751e-17    3    3    4    3
 0.5985251114089186    3    3    4    4
 1.13396450778384e-17    3    3    5    3
 0.6288966006571869    3    3    5    5
 -0.0001982781782794755    3    3    6    1
 -0.07586779111617462    3    3    6    2
 1.333965564022872e-17    3    3    6    3
 -0.04323760517235168    3    3    6    4
 0.571449359654823    3    3    6    6
 -2.775557561562891e-17    3    3    7    2
 -0.09041694843283918    3    3    7    3
 1.734723475976807e-16    3    3    7    4
 1.746944526040275e-17    3    3    7    5
 -8.326672684688674e-17    3    3    7    6
 0.6107707200211363    3    3    7    7
 0.183576182623532    4    1    1    1
 -0.02249378793562748    4    1    2    1
 0.01605297047365532    4    1    2    2
 2.928890718214844e-18    4    1    3    2
 0.006468746425229435    4    1    3    3
 0.02777541084259407    4    1    4    1
 0.01892658924264443    4    1    4    2
 1.495351582958745e-17    4    1    4    3
 -0.01136651280126036    4    1    4    4
 0.005117570450649105    4    1    5    5
 0.00056567914863831    4    1    6    1
 -0.0186504005531244    4    1    6    2
 -0.002345354135689994    4    1    6    4
 0.02119135953204809    4    1    6    6
 2.034573139304829e-18    4    1    7    1
 -9.75781955236954e-18    4    1    7    2
 0.000824230067275002    4    1    7    3
 -8.565197162635485e-18    4    1    7    4
 2.905661822261152e-17    4    1    7    6
 0.004168313859107693    4    1    7    7
 -0.1284111442180366    4    2    1    1
 0.009211961991887396    4    2    2    1
 0.004096939912801157    4    2    2    2
 2.869545960999742e-18    4    2    3    1
 -3.769538366174224e-18    4    2    3    2
 0.006908243498093407    4    2    3    3
 0.01892658924264447    4    2    4    1
 0.1240517165144837    4    2    4    2
 -1.226214559612675e-17    4    2    4    3
 -0.1044544632776943    4    2    4    4
 -0.06878080621764203    4    2    5    5
 -0.02034190976547092    4    2    6    1
 -0.02096416785109075    4    2    6    2
 2.991936770455828e-17    4    2    6    3
 0.03137396903911942    4    2    6    4
 0.05859670061427583    4    2    6    6
 1.040834085586084e-17    4    2    7    2
 0.0762253449392567    4    2    7    3
 -2.775557561562891e-17    4    2    7    4
 -3.469446951953614e-18    4    2    7    6
 -0.01383414722489369    4    2    7    7
 -3.800654955110197e-18    4    3    1    1
 2.114115676229442e-17    4    3    2    1
 5.171885888734484e-17    4    3    2    2
 -0.003438747821461435    4    3    3    1
 0.01997596221946221    4    3    3    2
 5.187995951010953e-18    4    3    3    3
 -1.235153616673905e-17    4    3    4    1
 -1.257166485782237e-17    4    3    4    2
 0.04724489455189291    4    3    4    3
 5.762378874068476e-17    4    3    4    4
 1.843754742009931e-18    4    3    5    2
 -1.906988653909981e-17    4    3    5    5
 -1.805191798214231e-17    4    3    6    1
 -3.421079715155754e-17    4    3    6    2
 0.02860739125077185    4    3    6    3
 8.905278375714746e-18    4    3    6    4
 -2.066233641352267e-17    4    3    6    6
 0.004959010467586793    4    3    7    1
 0.03407235778762016    4    3    7    2
 2.775557561562891e-17    4    3    7    3
 -0.002291691391012724    4    3    7    4
 0.04764962204370622    4    3    7    6
 -1.665334536937735e-16    4    3    7    7
 0.9998735574343697    4    4    1    1
 -0.01356677348823731    4    4    2    1
 0.6756770561239246    4    4    2    2
 1.151397278351667e-18    4    4    3    1
 -2.549872115495425e-18    4    4    3    2
 0.5985251114089185    4    4    3    3
 -0.01136651280126034    4    4    4    1
 -0.1044544632776943    4    4    4    2
 9.697184738353068e-17    4    4    4    3
 0.7827570945926741    4    4    4    4
 9.898005391207936e-18    4    4    5    3
 0.7289326957767327    4    4    5    5
 0.01923713082562907    4    4    6    1
 -0.08823280673503427    4    4    6    2
 -1.701922276369248e-16    4    4    6    3
 -0.1213487987502145    4    4    6    4
 0.5490563748640568    4    4    6    6
 2.168404344971009e-18    4    4    7    1
 1.734723475976807e-17    4    4    7    2
 -0.1600595030234179    4    4    7    3
 7.979727989493313e-17    4    4    7    4
 1.808190037128361e-17    4    4    7    5
 -1.942890293094024e-16    4    4    7    6
 0.60826156588608    4    4    7    7
 0.02604465540815457    5    1    5    1
 0.03246169522875562    5    1    5    2
 -0.01344892575820333    5    1    5    4
 -0.01575110009293618    5    1    6    5
 3.605370117543805e-18    5    2    3    2
 1.843754742009931e-18    5    2    4    3
 0.03246169522875565    5    2    5    1
 0.1444625104512076    5    2    5    2
 -9.602265818634205e-18    5    2    5    3
 -0.04690193941312431    5    2    5    4
 3.351188095579075e-18    5    2    6    3
 -0.05911935422085661    5    2    6    5
 4.801131359738823e-18    5    2    7    2
 1.804078978568724e-18    5    2    7    4
 -1.704786280009432e-17    5    2    7    5
 1.463271589681973e-18    5    2    7    6
 1.225323825216014e-17    5    3    1    1
 1.110972290806427e-17    5    3    2    2
 1.133964507783839e-17    5    3    3    3
 9.898005391207939e-18    5    3    4    4
 -1.321978496264382e-18    5    3    5    1
 -7.575236288806756e-18    5    3    5    2
 0.02880179733368731    5    3    5    3
 8.283063928504271e-18    5    3    5    4
 1.125503330430849e-17    5    3    5    5
 1.157545331779958e-18    5    3    6    5
 1.012630110629468e-17    5    3    6    6
 -0.0236881166134785    5    3    7    5
 9.627373432877716e-18    5    3    7    7
 -0.01344892575820335    5    4    5    1
 -0.04690193941312433    5    4    5    2
 8.110992474218746e-18    5    4    5    3
 0.0559139421529671    5    4    5    4
 0.001749015392545057    5    4    6    5
 1.286662062931441e-18    5    4    7    4
 1.996970602934971e-17    5    4    7    5
 1.020413142730472e-18    5    4    7    6
 1.115336241231625    5    5    1    1
 -0.01169416192230506    5    5    2    1
 0.7474037049760133    5    5    2    2
 -2.721791858515219e-18    5    5    3    1
 -3.364542191903063e-17    5    5    3    2
 0.628896600657187    5    5    3    3
 0.005117570450649173    5    5    4    1
 -0.06878080621764203    5    5    4    2
 2.950237078825079e-17    5    5    4    3
 0.7289326957767327    5    5    4    4
 1.125503330430849e-17    5    5    5    3
 0.8801590933750452    5    5    5    5
 0.006209661961231227    5    5    6    1
 -0.158594010118254    5    5    6    2
 -6.069993604976194e-17    5    5    6    3
 -0.1162587316971542    5    5    6    4
 0.5889322714021519    5    5    6    6
 -5.746271514173174e-18    5    5    7    1
 -7.632783294297951e-17    5    5    7    2
 -0.1898166915431213    5    5    7    3
 1.734723475976807e-16    5    5    7    4
 2.120111736127915e-17    5    5    7    5
 9.71445146547012e-17    5    5    7    6
 0.6250194774263522    5    5    7    7
 0.2380287233084224    6    1    1    1
 -0.03580346516593162    6    1    2    1
 0.0007856984699085558    6    1    2    2
 -1.28513705905264e-18    6    1    3    1
 -2.877327139595966e-18    6    1    3    2
 -0.0001982781782795056    6    1    3    3
 0.0005656791486383082    6    1    4    1
 -0.02034190976547096    6    1    4    2
 1.975630880311389e-17    6    1    4    3
 0.01923713082562903    6    1    4    4
 0.006209661961231149    6    1    5    5
 0.031313868223187    6    1    6    1
 0.006802768189838376    6    1    6    2
 1.252106740703831e-17    6    1    6    3
 -0.0002789165819761731    6    1    6    4
 -0.008404675172468363    6    1    6    6
 -1.208885422321337e-17    6    1    7    2
 -0.006987029610174234    6    1    7    3
 4.011548038196366e-18    6    1    7    4
 1.561251128379126e-17    6    1    7    6
 0.005129970949411069    6    1    7    7
 -0.3083383571223315    6    2    1    1
 0.006648416025229847    6    2    2    1
 -0.1429056981420397    6    2    2    2
 3.110245956821929e-18    6    2    3    1
 -3.919318583048134e-17    6    2    3    2
 -0.07586779111617446    6    2    3    3
 -0.01865040055312441    6    2    4    1
 -0.02096416785109063    6    2    4    2
 -5.818633401294022e-17    6    2    4    3
 -0.08823280673503428    6    2    4    4
 -0.1585940101182539    6    2    5    5
 0.006802768189838419    6    2    6    1
 0.1018915960512771    6    2    6    2
 3.536801745354083e-17    6    2    6    3
 0.06097797236258731    6    2    6    4
 -0.09677001714375574    6    2    6    6
 1.320016145001102e-17    6    2    7    1
 1.778091562876227e-17    6    2    7    2
 0.07674719179437141    6    2    7    3
 1.647987302177967e-17    6    2    7    4
 -3.483614341183296e-18    6    2    7    5
 2.949029909160572e-17    6    2    7    6
 -0.06905863078611792    6    2    7    7
 -1.618095551884198e-16    6    3    1    1
 2.897083824802257e-17    6    3    2    1
 -3.808199625604481e-17    6    3    2    2
 -0.003148604209996363    6    3    3    1
 0.04012896107515788    6    3    3    2
 -8.621241228621303e-17    6    3    3    3
 -1.235313870423506e-17    6    3    4    1
 -1.40399363957094e-17    6    3    4    2
 0.02860739125077185    6    3    4    3
 -2.109016202747166e-16    6    3    4    4
 3.351188095579074e-18    6    3    5    2
 -8.373109637951598e-17    6    3    5    5
 -1.33753359947608e-17    6    3    6    1
 5.404799264780917e-17    6    3    6    2
 0.07093701220887672    6    3    6    3
 6.772669097882522e-17    6    3    6    4
 -5.936165680098128e-17    6    3    6    6
 0.00386266074631444    6    3    7    1
 0.03533301457090761    6    3    7    2
 1.179611963664229e-16    6    3    7    3
 0.04444692125975998    6    3    7    4
 0.06453361573909756    6    3    7    6
 2.775557561562891e-17    6    3    7    7
 -0.2193247884608607    6    4    1    1
 0.00223213449239104    6    4    2    1
 -0.09543528541512421    6    4    2    2
 -2.266563811326315e-18    6    4    3    1
 4.123250871450822e-17    6    4    3    2
 -0.04323760517235176    6    4    3    3
 -0.00234535413569003    6    4    4    1
 0.03137396903911942    6    4    4    2
 -2.583048047276056e-17    6    4    4    3
 -0.1213487987502146    6    4    4    4
 -0.1162587316971543    6    4    5    5
 -0.0002789165819762187    6    4    6    1
 0.06097797236258753    6    4    6    2
 -2.459239185692994e-17    6    4    6    3
 0.06869337667557181    6    4    6    4
 -0.04458706418625344    6    4    6    6
 -4.851804721872632e-18    6    4    7    1
 8.847089727481716e-17    6    4    7    2
 0.07844962019690913    6    4    7    3
 -7.806255641895632e-18    6    4    7    4
 -1.614431605298723e-18    6    4    7    5
 -6.938893903907228e-17    6    4    7    6
 -0.04153968947508858    6    4    7    7
 1.534132331382576e-18    6    5    3    2
 -0.0157511000929362    6    5    5    1
 -0.05911935422085661    6    5    5    2
 0.001749015392545063    6    5    5    4
 0.03859536770934896    6    5    6    5
 -1.959518149551563e-18    6    5    7    2
 7.286500480115777e-18    6    5    7    5
 2.519551076072561e-18    6    5    7    6
 0.8026517550651452    6    6    1    1
 -0.006978274483617568    6    6    2    1
 0.6141501835482587    6    6    2    2
 -6.988830843614836e-18    6    6    3    1
 1.196450224422673e-17    6    6    3    2
 0.5714493596548229    6    6    3    3
 0.02119135953204819    6    6    4    1
 0.05859670061427596    6    6    4    2
 1.474556349302648e-16    6    6    4    3
 0.5490563748640567    6    6    4    4
 1.012630110629469e-17    6    6    5    3
 0.5889322714021514    6    6    5    5
 -0.008404675172468302    6    6    6    1
 -0.09677001714375512    6    6    6    2
 3.54098880849672e-17    6    6    6    3
 -0.0445870641862534    6    6    6    4
 0.5971140853207338    6    6    6    6
 -1.452830911130576e-17    6    6    7    1
 1.040834085586084e-17    6    6    7    2
 -0.03794475504787534    6    6    7    3
 1.040834085586084e-16    6    6    7    4
 1.740111187644996e-17    6    6    7    5
 8.326672684688674e-17    6    6    7    6
 0.5663119874917688    6    6    7    7
 -3.862784419789516e-17    7    1    1    1
 -1.794149181813202e-18    7    1    2    1
 -5.77405283690658e-18    7    1    2    2
 -0.01531631786085814    7    1    3    1
 -0.0231063270388361    7    1    3    2
 -1.304692523112155e-18    7    1    3    3
 4.636637611638312e-18    7    1    4    1
 0.004959010467586777    7    1    4    3
 2.468507390934226e-18    7    1    4    4
 -2.49366499671666e-18    7    1    5    5
 -1.820517758586552e-18    7    1    6    1
 -3.228093914726805e-18    7    1    6    2
 0.003862660746314426    7    1    6    3
 4.159032860631835e-18    7    1    6    4
 1.401273258321331e-17    7    1    6    6
 0.02139590153456676    7    1    7    1
 0.01830936894761636    7    1    7    2
 1.301042606982605e-18    7    1    7    3
 -0.01320018071538441    7    1    7    4
 -0.0121968015261707    7    1    7    6
 -1.040834085586084e-17    7    1    7    7
 2.046993388330399e-17    7    2    1    1
 -7.866910280605783e-18    7    2    2    1
 -1.440813601106915e-18    7    2    2    2
 -0.01387769750897776    7    2    3    1
 -0.04033812788351976    7    2    3    2
 2.009852177231595e-17    7    2    3    3
 2.376281260647836e-18    7    2    4    1
 9.14773118204559e-18    7    2    4    2
 0.03407235778762017    7    2    4    3
 -5.346276672598454e-17    7    2    4    4
 4.801131359738825e-18    7    2    5    2
 6.938893903907228e-18    7    2    5    5
 2.864598004748956e-18    7    2    6    1
 2.097604779840628e-17    7    2    6    2
 0.03533301457090748    7    2    6    3
 3.736006565565886e-17    7    2    6    4
 -1.959518149551567e-18    7    2    6    5
 2.418105156346317e-17    7    2    6    6
 0.01830936894761637    7    2    7    1
 0.06190767708855635    7    2    7    2
 3.122502256758253e-17    7    2    7    3
 -0.01667400732787961    7    2    7    4
 0.009942182655520226    7    2    7    6
 -3.469446951953614e-17    7    2    7    7
 -0.3624165782220115    7    3    1    1
 0.007503975502428857    7    3    2    1
 -0.1383021575433797    7    3    2    2
 1.542609744054287e-18    7    3    3    1
 1.779346849862539e-17    7    3    3    2
 -0.09041694843283919    7    3    3    3
 0.0008242300672749906    7    3    4    1
 0.07622534493925676    7    3    4    2
 -7.702468030468224e-17    7    3    4    3
 -0.1600595030234179    7    3    4    4
 -0.1898166915431214    7    3    5    5
 -0.006987029610174247    7    3    6    1
 0.07674719179437162    7    3    6    2
 4.525015553158149e-17    7    3    6    3
 0.07844962019690889    7    3    6    4
 -0.03794475504787589    7    3    6    6
 1.13841228110978e-17    7    3    7    1
 1.092875789865388e-16    7    3    7    2
 0.1524774119133345    7    3    7    3
 1.734723475976807e-18    7    3    7    4
 -2.927864280648339e-18    7    3    7    5
 -8.326672684688674e-17    7    3    7    6
 -0.09323216754505667    7    3    7    7
 -8.080724201025374e-17    7    4    1    1
 5.279427178501449e-17    7    4    2    1
 7.73101696697579e-17    7    4    2    2
 0.009633876765567494    7    4    3    1
 0.07709309930980189    7    4    3    2
 1.560507869919587e-17    7    4    3    3
 -1.77042542140832e-17    7    4    4    1
 -1.731444294618334e-17    7    4    4    2
 -0.002291691391012651    7    4    4    3
 -3.235902248912107e-17    7    4    4    4
 1.804078978568723e-18    7    4    5    2
 1.286662062931444e-18    7    4    5    4
 6.591949208711867e-17    7    4    5    5
 -2.059545004168387e-17    7    4    6    1
 2.335353602325998e-17    7    4    6    2
 0.04444692125976005    7    4    6    3
 5.524939640219481e-17    7    4    6    4
 5.447560069647539e-17    7    4    6    6
 -0.01320018071538442    7    4    7    1
 -0.01667400732787953    7    4    7    2
 8.673617379884035e-18    7    4    7    3
 0.06896290809871305    7    4    7    4
 0.05791135320447926    7    4    7    6
 2.498001805406602e-16    7    4    7    7
 2.308260839865552e-17    7    5    1    1
 1.99195281854258e-17    7    5    2    2
 1.746944526040275e-17    7    5    3    3
 1.80819003712836e-17    7    5    4    4
 -3.030743472755407e-18    7    5    5    1
 -1.532584162625642e-17    7    5    5    2
 -0.02368811661347849    7    5    5    3
 1.013342983873093e-17    7    5    5    4
 2.120111736127914e-17    7    5    5    5
 -3.483614341183306e-18    7    5    6    2
 -1.614431605298716e-18    7    5    6    4
 8.611827004099206e-18    7    5    6    5
 1.740111187644997e-17    7    5    6    6
 -2.927864280648336e-18    7    5    7    3
 0.02435204324877166    7    5    7    5
 1.802412065322981e-17    7    5    7    7
 1.372602496860853e-16    7    6    1    1
 -3.746432557017046e-17    7    6    2    1
 -1.530349365603267e-16    7    6    2    2
 0.009210997611568725    7    6    3    1
 0.0986198463961163    7    6    3    2
 -1.280776618160899e-16    7    6    3    3
 1.590733234854512e-17    7    6    4    1
 3.944372237780595e-17    7    6    4    2
 0.04764962204370625    7    6    4    3
 -1.487532093155725e-16    7    6    4    4
 1.463271589681974e-18    7    6    5    2
 1.020413142730474e-18    7    6    5    4
 -1.387778780781446e-17    7    6    5    5
 5.912813657170344e-18    7    6    6    1
 8.657464388967136e-17    7    6    6    2
 0.06453361573909762    7    6    6    3
 1.201130198682554e-16    7    6    6    4
 2.519551076072568e-18    7    6    6    5
 -4.458978689261458e-17    7    6    6    6
 -0.0121968015261707    7    6    7    1
 0.009942182655520396    7    6    7    2
 2.324529457808922e-16    7    6    7    3
 0.05791135320447921    7    6    7    4
 0.1153233198344356    7    6    7    6
 -1.457167719820518e-16    7    6    7    7
 0.8690157461264708    7    7    1    1
 -0.009401774264014425    7    7    2    1
 0.6242543517629885    7    7    2    2
 -2.735896247005892e-18    7    7    3    1
 -5.004645346962731e-17    7    7    3    2
 0.6107707200211364    7    7    3    3
 0.004168313859107752    7    7    4    1
 -0.01383414722489336    7    7    4    2
 -5.135616337240304e-17    7    7    4    3
 0.6082615658860799    7    7    4    4
 9.627373432877731e-18    7    7    5    3
 0.6250194774263522    7    7    5    5
 0.00512997094941116    7    7    6    1
 -0.0690586307861174    7    7    6    2
 2.067971427126085e-16    7    7    6    3
 -0.04153968947508897    7    7    6    4
 0.566311987491768    7    7    6    6
 -1.33356867215717e-17    7    7    7    1
 -6.245004513516506e-17    7    7    7    2
 -0.09323216754505664    7    7    7    3
 4.649058915617843e-16    7    7    7    4
 1.802412065322982e-17    7    7    7    5
 -6.938893903907228e-17    7    7    7    6
 0.6195519660863547    7    7    7    7
 -32.70277568444323    1    1  0  0
 0.5581099836222324    2    1  0  0
 -7.670871202899938    2    2  0  0
 2.457622279292219e-16    3    1  0  0
 1.344876872633566e-16    3    2  0  0
 -6.364304387503695    3    3  0  0
 -0.2351639827895827    4    1  0  0
 0.4315053763812736    4    2  0  0
 -9.832961756895803e-16    4    3  0  0
 -6.986755095659389    4    4  0  0
 -1.163836671168457e-16    5    3  0  0
 -7.457298306151833    5    5  0  0
 -0.304693822028289    6    1  0  0
 1.381551908706115    6    2  0  0
 7.921735651590491e-16    6    3  0  0
 1.079818871631587    6    4  0  0
 -5.33578186132871    6    6  0  0
 2.376571162088226e-16    7    1  0  0
 2.498001805406602e-16    7    2  0  0
 1.709972953674934    7    3  0  0
 -2.220446049250313e-16    7    4  0  0
 -1.988400582808527e-16    7    5  0  0
 -9.992007221626409e-16    7    6  0  0
 -5.603683927452248    7    7  0  0
 9.190900955277339  0  0  0  0
