 &FCI NORB=   7,NELEC=10,MS2=0,
  ORBSYM=0,0,3,0,2,0,3
  ISYM=1,
 &END
 4.744502186719134    1    1    1    1
 -0.4166504877970045    1    1    2    1
 1.004568572452143    1    1    2    2
 -1.075825720974449e-17    1    1    3    1
 1.316334857039316e-17    1    1    3    2
 0.799951420287041    1    1    3    3
 0.1835761826235269    1    1    4    1
 -0.128411144218024    1    1    4    2
 1.618519660475014e-16    1    1    4    3
 0.9998735574343932    1    1    4    4
 1.225323825216067e-17    1    1    5    3
 1.115336241231624    1    1    5    5
 0.2380287233084322    1    1    6    1
 -0.3083383571223415    1    1    6    2
 -2.35500801426041e-16    1    1    6    3
 -0.2193247884608469    1    1    6    4
 0.8026517550651279    1    1    6    6
 -2.623769257414921e-17    1    1    7    1
 6.938893903907228e-18    1    1    7    2
 -0.3624165782220095    1    1    7    3
 -1.630640067418199e-16    1    1    7    4
 2.308260839865523e-17    1    1    7    5
 3.33066907387547e-16    1    1    7    6
 0.8690157461264869    1    1    7    7
 -0.4166504877970046    2    1    1    1
 0.05817529090640945    2    1    2    1
 -0.01297181315390041    2    1    2    2
 -2.402325892724023e-18    2    1    3    2
 -0.004406052645278407    2    1    3    3
 -0.02249378793562626    2    1    4    1
 0.009211961991887313    2    1    4    2
 -3.489438670248221e-17    2    1    4    3
 -0.01356677348823775    2    1    4    4
 -0.0116941619223048    2    1    5    5
 -0.03580346516593271    2    1    6    1
 0.006648416025230135    2    1    6    2
 6.231169249339992e-18    2    1    6    3
 0.002232134492390508    2    1    6    4
 -0.0069782744836171    2    1    6    6
 2.096406544454393e-18    2    1    7    1
 1.393199791643873e-17    2    1    7    2
 0.007503975502428675    2    1    7    3
 3.323079658668071e-17    2    1    7    4
 -4.87890977618477e-17    2    1    7    6
 -0.009401774264014562    2    1    7    7
 1.004568572452142    2    2    1    1
 -0.01297181315390034    2    2    2    1
 0.7281718377417455    2    2    2    2
 -7.559162483153702e-18    2    2    3    1
 -1.128780518584371e-17    2    2    3    2
 0.6451620395842257    2    2    3    3
 0.01605297047365581    2    2    4    1
 0.004096939912809554    2    2    4    2
 8.236509287687316e-17    2    2    4    3
 0.6756770561239303    2    2    4    4
 1.110972290806475e-17    2    2    5    3
 0.7474037049760102    2    2    5    5
 0.0007856984699087704    2    2    6    1
 -0.142905698142041    2    2    6    2
 -2.169813349111415e-17    2    2    6    3
 -0.09543528541511841    2    2    6    4
 0.6141501835482526    2    2    6    6
 -9.86623976961809e-18    2    2    7    1
 1.040834085586084e-17    2    2    7    2
 -0.1383021575433776    2    2    7    3
 1.734723475976807e-16    2    2    7    4
 1.991952818542551e-17    2    2    7    5
 -1.942890293094024e-16    2    2    7    6
 0.6242543517629944    2    2    7    7
 -2.240320836780957e-17    3    1    1    1
 -1.040228459928537e-18    3    1    2    1
 -5.882239584215769e-18    3    1    2    2
 0.01099384996382168    3    1    3    1
 0.01776537427168852    3    1    3    2
 -6.387295115701371e-18    3    1    3    3
 2.893041525093533e-18    3    1    4    1
 3.991859516998711e-18    3    1    4    2
 -0.003438747821461201    3    1    4    3
 -2.740214858979792e-18    3    1    4    4
 -1.807017616244974e-18    3    1    5    5
 -5.869466646916476e-18    3    1    6    2
 -0.003148604209996289    3    1    6    3
 6.517125853374953e-18    3    1    6    6
 -0.01531631786085791    3    1    7    1
 -0.01387769750897756    3    1    7    2
 -3.469446951953614e-18    3    1    7    3
 0.009633876765567033    3    1    7    4
 0.009210997611569004    3    1    7    6
 -1.909210831388023e-17    3    2    1    1
 -2.264656010443977e-17    3    2    2    2
 0.01776537427168853    3    2    3    1
 0.1444360128515036    3    2    3    2
 -4.269922804521469e-17    3    2    3    3
 -1.843825077266658e-18    3    2    4    1
 9.438332776230428e-18    3    2    4    2
 0.01997596221946172    3    2    4    3
 -2.477347314977211e-18    3    2    4    4
 3.60537011754397e-18    3    2    5    2
 -3.152385331316268e-18    3    2    6    1
 -2.80077989082364e-17    3    2    6    2
 0.0401289610751619    3    2    6    3
 4.271280044963576e-17    3    2    6    4
 1.53413233138255e-18    3    2    6    5
 -1.982371760409152e-17    3    2    6    6
 -0.02310632703883601    3    2    7    1
 -0.04033812788351958    3    2    7    2
 -1.040834085586084e-17    3    2    7    3
 0.07709309930979723    3    2    7    4
 0.09861984639612022    3    2    7    6
 -2.081668171172169e-17    3    2    7    7
 0.7999514202870411    3    3    1    1
 -0.004406052645278435    3    3    2    1
 0.6451620395842257    3    3    2    2
 -7.658274775124422e-18    3    3    3    1
 -3.102522868529861e-17    3    3    3    2
 0.6330178802780875    3    3    3    3
 0.006468746425229558    3    3    4    1
 0.006908243498099534    3    3    4    2
 6.32376743278569e-17    3    3    4    3
 0.5985251114089153    3    3    4    4
 1.133964507783881e-17    3    3    5    3
 0.6288966006571782    3    3    5    5
 -0.0001982781782795132    3    3    6    1
 -0.07586779111617152    3    3    6    2
 -4.02013101766201e-17    3    3    6    3
 -0.04323760517234607    3    3    6    4
 0.5714493596548181    3    3    6    6
 -1.20346441145891e-17    3    3    7    1
 -2.081668171172169e-17    3    3    7    2
 -0.09041694843283271    3    3    7    3
 5.551115123125783e-17    3    3    7    4
 1.746944526040236e-17    3    3    7    5
 -6.938893903907228e-17    3    3    7    6
 0.610770720021136    3    3    7    7
 0.1835761826235271    4    1    1    1
 -0.02249378793562629    4    1    2    1
 0.01605297047365584    4    1    2    2
 2.187525415045785e-18    4    1    3    1
 7.596266407144769e-18    4    1    3    2
 0.006468746425229551    4    1    3    3
 0.02777541084259466    4    1    4    1
 0.01892658924264573    4    1    4    2
 1.339389783389447e-17    4    1    4    3
 -0.01136651280126136    4    1    4    4
 0.00511757045064899    4    1    5    5
 0.0005656791486387255    4    1    6    1
 -0.01865040055312397    4    1    6    2
 -5.056176474975928e-18    4    1    6    3
 -0.002345354135691324    4    1    6    4
 0.02119135953204857    4    1    6    6
 -6.85249654328729e-18    4    1    7    1
 -5.366800753803247e-18    4    1    7    2
 0.000824230067275172    4    1    7    3
 -9.215718466126788e-18    4    1    7    4
 1.713039432527097e-17    4    1    7    6
 0.004168313859107573    4    1    7    7
 -0.1284111442180237    4    2    1    1
 0.009211961991887258    4    2    2    1
 0.004096939912809652    4    2    2    2
 1.999914365830093e-18    4    2    3    1
 -1.042083520628564e-18    4    2    3    2
 0.006908243498099491    4    2    3    3
 0.01892658924264578    4    2    4    1
 0.1240517165144831    4    2    4    2
 -2.907704264552064e-17    4    2    4    3
 -0.1044544632776958    4    2    4    4
 -0.06878080621763566    4    2    5    5
 -0.02034190976547018    4    2    6    1
 -0.02096416785108808    4    2    6    2
 1.20012514892171e-17    4    2    6    3
 0.03137396903910891    4    2    6    4
 0.05859670061428229    4    2    6    6
 -2.168404344971009e-18    4    2    7    1
 -3.469446951953614e-17    4    2    7    2
 0.07622534493925284    4    2    7    3
 1.734723475976807e-17    4    2    7    4
 -3.469446951953614e-17    4    2    7    6
 -0.01383414722489438    4    2    7    7
 2.388340150737428e-17    4    3    1    1
 1.126981614590596e-17    4    3    2    1
 9.532657745360867e-17    4    3    2    2
 -0.0034387478214612    4    3    3    1
 0.01997596221946172    4    3    3    2
 2.499605231080027e-17    4    3    3    3
 -6.562124719645147e-18    4    3    4    1
 -2.378775670267741e-17    4    3    4    2
 0.04724489455188964    4    3    4    3
 7.641880995616891e-17    4    3    4    4
 1.843754742009779e-18    4    3    5    2
 2.82865597657586e-17    4    3    5    5
 -6.896645093515573e-18    4    3    6    1
 -3.860675559646151e-17    4    3    6    2
 0.02860739125077222    4    3    6    3
 2.253754405358078e-17    4    3    6    4
 4.452220760751134e-17    4    3    6    6
 0.00495901046758671    4    3    7    1
 0.03407235778761846    4    3    7    2
 5.551115123125783e-17    4    3    7    3
 -0.00229169139101796    4    3    7    4
 0.04764962204370238    4    3    7    6
 -8.326672684688674e-17    4    3    7    7
 0.9998735574343937    4    4    1    1
 -0.01356677348823779    4    4    2    1
 0.6756770561239305    4    4    2    2
 -6.302030102053345e-18    4    4    3    1
 -8.306491640408658e-18    4    4    3    2
 0.5985251114089152    4    4    3    3
 -0.01136651280126135    4    4    4    1
 -0.1044544632776958    4    4    4    2
 6.864273866128524e-17    4    4    4    3
 0.7827570945927028    4    4    4    4
 9.898005391208358e-18    4    4    5    3
 0.7289326957767456    4    4    5    5
 0.01923713082562918    4    4    6    1
 -0.08823280673504628    4    4    6    2
 -8.744594392715524e-17    4    4    6    3
 -0.1213487987502097    4    4    6    4
 0.5490563748640496    4    4    6    6
 -1.615461237003402e-17    4    4    7    1
 6.938893903907228e-18    4    4    7    2
 -0.160059503023427    4    4    7    3
 1.491862189340054e-16    4    4    7    4
 1.808190037128353e-17    4    4    7    5
 -5.551115123125783e-17    4    4    7    6
 0.6082615658860916    4    4    7    7
 0.02604465540815458    5    1    5    1
 0.0324616952287554    5    1    5    2
 -0.01344892575820306    5    1    5    4
 -0.01575110009293694    5    1    6    5
 3.60537011754397e-18    5    2    3    2
 1.843754742009779e-18    5    2    4    3
 0.03246169522875542    5    2    5    1
 0.1444625104512059    5    2    5    2
 -9.06566579891235e-18    5    2    5    3
 -0.04690193941312285    5    2    5    4
 3.351188095579185e-18    5    2    6    3
 -0.05911935422085922    5    2    6    5
 4.80113135973876e-18    5    2    7    2
 1.804078978568571e-18    5    2    7    4
 -1.404018543628831e-17    5    2    7    5
 1.463271589681984e-18    5    2    7    6
 1.225323825216067e-17    5    3    1    1
 1.110972290806474e-17    5    3    2    2
 1.133964507783881e-17    5    3    3    3
 9.898005391208361e-18    5    3    4    4
 -1.629841733336449e-18    5    3    5    1
 -7.111675010873493e-18    5    3    5    2
 0.02880179733368622    5    3    5    3
 8.359063816625472e-18    5    3    5    4
 1.125503330430897e-17    5    3    5    5
 1.012630110629506e-17    5    3    6    6
 -0.02368811661347859    5    3    7    5
 9.62737343287811e-18    5    3    7    7
 -0.01344892575820307    5    4    5    1
 -0.04690193941312285    5    4    5    2
 9.273927510582254e-18    5    4    5    3
 0.05591394215296825    5    4    5    4
 0.001749015392546854    5    4    6    5
 1.286662062931327e-18    5    4    7    4
 1.437002478211642e-17    5    4    7    5
 1.020413142730396e-18    5    4    7    6
 1.115336241231625    5    5    1    1
 -0.01169416192230496    5    5    2    1
 0.7474037049760103    5    5    2    2
 -3.210494230278809e-18    5    5    3    1
 -3.703014915078907e-17    5    5    3    2
 0.6288966006571782    5    5    3    3
 0.005117570450649059    5    5    4    1
 -0.06878080621763569    5    5    4    2
 6.450659137228414e-17    5    5    4    3
 0.7289326957767456    5    5    4    4
 1.125503330430897e-17    5    5    5    3
 0.8801590933750452    5    5    5    5
 0.006209661961231476    5    5    6    1
 -0.1585940101182594    5    5    6    2
 -2.071315821273458e-18    5    5    6    3
 -0.1162587316971455    5    5    6    4
 0.5889322714021429    5    5    6    6
 -5.963111948670274e-18    5    5    7    1
 -5.551115123125783e-17    5    5    7    2
 -0.1898166915431214    5    5    7    3
 1.561251128379126e-16    5    5    7    4
 2.120111736127888e-17    5    5    7    5
 5.551115123125783e-17    5    5    7    6
 0.6250194774263608    5    5    7    7
 0.2380287233084324    6    1    1    1
 -0.03580346516593279    6    1    2    1
 0.0007856984699088254    6    1    2    2
 -1.042897481301179e-18    6    1    3    1
 -0.0001982781782795249    6    1    3    3
 0.0005656791486387269    6    1    4    1
 -0.02034190976547021    6    1    4    2
 2.610070619878483e-17    6    1    4    3
 0.01923713082562913    6    1    4    4
 0.006209661961231399    6    1    5    5
 0.03131386822318735    6    1    6    1
 0.006802768189836548    6    1    6    2
 1.923678385327142e-18    6    1    6    3
 -0.0002789165819750312    6    1    6    4
 -0.00840467517246748    6    1    6    6
 -1.317305639569888e-17    6    1    7    2
 -0.006987029610174103    6    1    7    3
 -6.830473686658678e-18    6    1    7    4
 1.951563910473908e-17    6    1    7    6
 0.005129970949411599    6    1    7    7
 -0.3083383571223411    6    2    1    1
 0.006648416025230077    6    2    2    1
 -0.1429056981420408    6    2    2    2
 1.974983044889654e-18    6    2    3    1
 -4.711146168739182e-17    6    2    3    2
 -0.07586779111617151    6    2    3    3
 -0.01865040055312395    6    2    4    1
 -0.02096416785108807    6    2    4    2
 -6.350492935937329e-17    6    2    4    3
 -0.08823280673504626    6    2    4    4
 -0.1585940101182593    6    2    5    5
 0.006802768189836612    6    2    6    1
 0.1018915960512771    6    2    6    2
 3.1873753703821e-17    6    2    6    3
 0.06097797236258912    6    2    6    4
 -0.09677001714374882    6    2    6    6
 9.269928574751063e-18    6    2    7    1
 3.035766082959412e-18    6    2    7    2
 0.07674719179437658    6    2    7    3
 2.688821387764051e-17    6    2    7    4
 -3.483614341183307e-18    6    2    7    5
 7.806255641895632e-17    6    2    7    6
 -0.06905863078612259    6    2    7    7
 -1.959789706003027e-16    6    3    1    1
 2.071989747850419e-17    6    3    2    1
 -7.547207764457414e-17    6    3    2    2
 -0.003148604209996297    6    3    3    1
 0.04012896107516192    6    3    3    2
 -1.026590169890174e-16    6    3    3    3
 -1.018616941962809e-17    6    3    4    1
 5.746367577944538e-18    6    3    4    2
 0.02860739125077221    6    3    4    3
 -2.17020682275584e-16    6    3    4    4
 3.351188095579181e-18    6    3    5    2
 -5.674582149658166e-17    6    3    5    5
 -9.00087588480637e-18    6    3    6    1
 6.726338671583859e-17    6    3    6    2
 0.07093701220888203    6    3    6    3
 -2.04220980562098e-18    6    3    6    4
 -1.243735833944397e-16    6    3    6    6
 0.003862660746314556    6    3    7    1
 0.03533301457090954    6    3    7    2
 1.144917494144693e-16    6    3    7    3
 0.0444469212597569    6    3    7    4
 0.06453361573910227    6    3    7    6
 2.081668171172169e-17    6    3    7    7
 -0.2193247884608474    6    4    1    1
 0.0022321344923906    6    4    2    1
 -0.09543528541511845    6    4    2    2
 -4.901241388247385e-18    6    4    3    1
 5.645643247126043e-17    6    4    3    2
 -0.04323760517234612    6    4    3    3
 -0.002345354135691372    6    4    4    1
 0.03137396903910895    6    4    4    2
 -3.088899307209819e-17    6    4    4    3
 -0.1213487987502097    6    4    4    4
 -0.1162587316971456    6    4    5    5
 -0.0002789165819750691    6    4    6    1
 0.06097797236258929    6    4    6    2
 -8.838226235921586e-18    6    4    6    3
 0.06869337667556302    6    4    6    4
 -0.04458706418624904    6    4    6    6
 -3.496552006265752e-18    6    4    7    1
 1.0321604682062e-16    6    4    7    2
 0.07844962019690228    6    4    7    3
 -3.469446951953614e-17    6    4    7    4
 -1.61443160529864e-18    6    4    7    5
 -4.510281037539698e-17    6    4    7    6
 -0.04153968947508949    6    4    7    7
 1.534132331382547e-18    6    5    3    2
 -0.01575110009293696    6    5    5    1
 -0.0591193542208592    6    5    5    2
 3.90091416320233e-18    6    5    5    3
 0.001749015392546844    6    5    5    4
 0.03859536770934964    6    5    6    5
 -1.959518149551622e-18    6    5    7    2
 1.379106441129607e-17    6    5    7    5
 2.519551076072638e-18    6    5    7    6
 0.8026517550651281    6    6    1    1
 -0.006978274483617143    6    6    2    1
 0.6141501835482525    6    6    2    2
 -7.377140125565597e-18    6    6    3    1
 -1.932044702601415e-17    6    6    3    2
 0.5714493596548181    6    6    3    3
 0.02119135953204861    6    6    4    1
 0.05859670061428241    6    6    4    2
 1.846153555877372e-16    6    6    4    3
 0.5490563748640493    6    6    4    4
 1.012630110629507e-17    6    6    5    3
 0.5889322714021424    6    6    5    5
 -0.008404675172467461    6    6    6    1
 -0.09677001714374846    6    6    6    2
 -6.161051191512447e-18    6    6    6    3
 -0.04458706418624887    6    6    6    4
 0.5971140853207278    6    6    6    6
 -1.29020058525775e-17    6    6    7    1
 -4.510281037539698e-17    6    6    7    2
 -0.03794475504786898    6    6    7    3
 1.040834085586084e-16    6    6    7    4
 1.740111187644962e-17    6    6    7    5
 5.551115123125783e-17    6    6    7    6
 0.5663119874917673    6    6    7    7
 -3.355577938103006e-17    7    1    1    1
 -2.513173870313501e-18    7    1    2    1
 -7.3573584471397e-18    7    1    2    2
 -0.01531631786085791    7    1    3    1
 -0.02310632703883601    7    1    3    2
 1.111975409974236e-18    7    1    4    1
 0.004959010467586698    7    1    4    3
 6.060435866120638e-18    7    1    4    4
 -2.927345865710862e-18    7    1    5    5
 1.036398456336834e-18    7    1    6    1
 -1.653514605553381e-18    7    1    6    2
 0.003862660746314552    7    1    6    3
 2.224809747608905e-18    7    1    6    4
 1.022041263258651e-17    7    1    6    6
 0.02139590153456747    7    1    7    1
 0.01830936894761697    7    1    7    2
 1.517883041479706e-18    7    1    7    3
 -0.01320018071538443    7    1    7    4
 -0.01219680152617168    7    1    7    6
 -6.938893903907228e-18    7    1    7    7
 5.108577615741874e-17    7    2    1    1
 -1.849558230482643e-17    7    2    2    1
 -7.610271103775649e-18    7    2    2    2
 -0.01387769750897758    7    2    3    1
 -0.04033812788351956    7    2    3    2
 3.445111169360941e-17    7    2    3    3
 8.999279618259239e-18    7    2    4    1
 1.313653671247307e-17    7    2    4    2
 0.03407235778761845    7    2    4    3
 -3.627738092068653e-17    7    2    4    4
 4.80113135973876e-18    7    2    5    2
 1.734723475976807e-17    7    2    5    5
 1.009269085994899e-17    7    2    6    1
 3.597591216863139e-17    7    2    6    2
 0.03533301457090942    7    2    6    3
 1.284665812360336e-17    7    2    6    4
 -1.959518149551627e-18    7    2    6    5
 -3.633599860477442e-18    7    2    6    6
 0.01830936894761698    7    2    7    1
 0.06190767708855785    7    2    7    2
 1.734723475976807e-17    7    2    7    3
 -0.01667400732788227    7    2    7    4
 0.009942182655517454    7    2    7    6
 -4.163336342344337e-17    7    2    7    7
 -0.3624165782220098    7    3    1    1
 0.007503975502428712    7    3    2    1
 -0.1383021575433776    7    3    2    2
 2.31608524251465e-18    7    3    3    1
 1.505733349832677e-17    7    3    3    2
 -0.09041694843283275    7    3    3    3
 0.0008242300672751529    7    3    4    1
 0.07622534493925288    7    3    4    2
 -7.300105854118801e-17    7    3    4    3
 -0.160059503023427    7    3    4    4
 -0.1898166915431215    7    3    5    5
 -0.006987029610174108    7    3    6    1
 0.07674719179437681    7    3    6    2
 5.035475550326073e-17    7    3    6    3
 0.07844962019690205    7    3    6    4
 -0.03794475504786953    7    3    6    6
 1.024571052998802e-17    7    3    7    1
 9.194034422677078e-17    7    3    7    2
 0.1524774119133344    7    3    7    3
 6.071532165918825e-17    7    3    7    4
 -2.927864280648333e-18    7    3    7    5
 -1.249000902703301e-16    7    3    7    6
 -0.0932321675450634    7    3    7    7
 2.492129876332253e-17    7    4    1    1
 1.81516784524282e-17    7    4    2    1
 9.574390081022103e-17    7    4    2    2
 0.009633876765567043    7    4    3    1
 0.07709309930979727    7    4    3    2
 1.508404833366038e-17    7    4    3    3
 -1.594493891583891e-17    7    4    4    2
 -0.002291691391017909    7    4    4    3
 -8.455397661535182e-17    7    4    4    4
 1.804078978568571e-18    7    4    5    2
 1.286662062931329e-18    7    4    5    4
 -3.469446951953614e-18    7    4    5    5
 1.587265906051948e-18    7    4    6    1
 2.284598663944058e-17    7    4    6    2
 0.04444692125975685    7    4    6    3
 8.930444409748913e-17    7    4    6    4
 2.444277130617379e-17    7    4    6    6
 -0.01320018071538445    7    4    7    1
 -0.01667400732788215    7    4    7    2
 6.418476861114186e-17    7    4    7    3
 0.06896290809870831    7    4    7    4
 0.05791135320447494    7    4    7    6
 2.116362640691705e-16    7    4    7    7
 2.308260839865522e-17    7    5    1    1
 1.991952818542553e-17    7    5    2    2
 1.746944526040235e-17    7    5    3    3
 1.808190037128352e-17    7    5    4    4
 -3.558869175321616e-18    7    5    5    1
 -1.21453792287637e-17    7    5    5    2
 -0.0236881166134786    7    5    5    3
 4.851258600575309e-18    7    5    5    4
 2.120111736127888e-17    7    5    5    5
 -3.483614341183309e-18    7    5    6    2
 -1.614431605298642e-18    7    5    6    4
 1.280326401757991e-17    7    5    6    5
 1.740111187644963e-17    7    5    6    6
 -2.927864280648331e-18    7    5    7    3
 0.02435204324877274    7    5    7    5
 1.802412065322973e-17    7    5    7    7
 8.298003200572124e-17    7    6    1    1
 -1.340838818388026e-17    7    6    2    1
 -8.090294778709852e-17    7    6    2    2
 0.009210997611569021    7    6    3    1
 0.09861984639612031    7    6    3    2
 -1.638749819099181e-16    7    6    3    3
 2.089496466345118e-18    7    6    4    1
 5.120568388471216e-18    7    6    4    2
 0.04764962204370242    7    6    4    3
 -1.506844819877414e-16    7    6    4    4
 1.463271589681985e-18    7    6    5    2
 1.020413142730398e-18    7    6    5    4
 -2.775557561562891e-17    7    6    5    5
 -1.02381755450901e-17    7    6    6    1
 -8.904878840503611e-18    7    6    6    2
 0.06453361573910227    7    6    6    3
 1.819870919746376e-16    7    6    6    4
 2.519551076072641e-18    7    6    6    5
 4.240615191846499e-17    7    6    6    6
 -0.01219680152617167    7    6    7    1
 0.009942182655517651    7    6    7    2
 1.942890293094024e-16    7    6    7    3
 0.05791135320447485    7    6    7    4
 0.1153233198344378    7    6    7    6
 -1.873501354054952e-16    7    6    7    7
 0.8690157461264872    7    7    1    1
 -0.00940177426401468    7    7    2    1
 0.624254351762994    7    7    2    2
 -5.569570761828461e-18    7    7    3    1
 -2.185827325379016e-17    7    7    3    2
 0.6107707200211361    7    7    3    3
 0.004168313859107624    7    7    4    1
 -0.01383414722489424    7    7    4    2
 -4.097889290567274e-17    7    7    4    3
 0.6082615658860917    7    7    4    4
 9.627373432878123e-18    7    7    5    3
 0.6250194774263607    7    7    5    5
 0.005129970949411691    7    7    6    1
 -0.06905863078612247    7    7    6    2
 1.027020909454637e-16    7    7    6    3
 -0.0415396894750896    7    7    6    4
 0.566311987491767    7    7    6    6
 -1.214306433183765e-17    7    7    7    1
 1.734723475976807e-17    7    7    7    2
 -0.0932321675450633    7    7    7    3
 4.024558464266192e-16    7    7    7    4
 1.802412065322973e-17    7    7    7    5
 -2.220446049250313e-16    7    7    7    6
 0.619551966086363    7    7    7    7
 -32.70277568444323    1    1  0  0
 0.5581099836222284    2    1  0  0
 -7.670871202899917    2    2  0  0
 1.957664394458345e-16    3    1  0  0
 -5.595951739495904e-17    3    2  0  0
 -6.364304387503616    3    3  0  0
 -0.2351639827895774    4    1  0  0
 0.4315053763812253    4    2  0  0
 -1.522109818391359e-15    4    3  0  0
 -6.986755095659503    4    4  0  0
 -1.163836671168503e-16    5    3  0  0
 -7.457298306151833    5    5  0  0
 -0.3046938220283014    6    1  0  0
 1.381551908706159    6    2  0  0
 1.156275891175245e-15    6    3  0  0
 1.079818871631493    6    4  0  0
 -5.335781861328627    6    6  0  0
 4.562322741819003e-16    7    1  0  0
 1.387778780781446e-16    7    2  0  0
 1.709972953674951    7    3  0  0
 -1.942890293094024e-16    7    4  0  0
 -1.9884005828085e-16    7    5  0  0
 -9.992007221626409e-16    7    6  0  0
 -5.603683927452324    7    7  0  0
 9.190900955277339  0  0  0  0
