 --invoking executable--
/project1/nike/cfour_v2.00beta_withApril2019xnmol/bin/xjoda


   *************************************************************************
         <<<     CCCCCC     CCCCCC   |||     CCCCCC     CCCCCC   >>>
       <<<      CCC        CCC       |||    CCC        CCC         >>>
      <<<      CCC        CCC        |||   CCC        CCC            >>>
    <<<        CCC        CCC        |||   CCC        CCC              >>>
      <<<      CCC        CCC        |||   CCC        CCC            >>>
       <<<      CCC        CCC       |||    CCC        CCC         >>>
         <<<     CCCCCC     CCCCCC   |||     CCCCCC     CCCCCC   >>>
   *************************************************************************

     ****************************************************************
     * CFOUR Coupled-Cluster techniques for Computational Chemistry *
     ****************************************************************
 

   Department of Chemistry                Institut fuer Physikalische Chemie
   University of Texas at Austin          Universitaet Mainz
   Austin, TX  78712, USA                 D-55099 Mainz, Germany
 
                       Version 2.00beta
 
                     wob149                                            
                     Fri May 10 15:43:18 EDT 2019                      
                     integer*8 version is running
 
********************************************************************************
*                          Input from ZMAT file                                *
********************************************************************************
TITLE                                                                           
O                                                                               
H 1 R                                                                           
H 1 R 2 A                                                                       
                                                                                
R=0.9576257                                                                     
A=104.51                                                                        
                                                                                
*ACES2(CALC=CCSD                                                                
PRINT=4                                                                         
JODA_PRINT=4                                                                    
INPUT_MRCC=OFF                                                                  
CC_PROG=MRCC                                                                    
FROZEN_CORE=ON                                                                  
#DROPMO=1>5                                                                     
CONTRACTION=GENERAL                                                             
RELATIVISTIC=OFF                                                                
EXCITE=EOMEE                                                                    
ESTATE_CONV=5                                                                   
ESTATE_SYM=2/2/2/2/2/2/2/2                                                      
XFORM_TOL=18                                                                    
SAVE_INTS=ON                                                                    
SCF_EXPORDER=6                                                                  
SCF_EXPSTART=5                                                                  
#SCF_DAMPING=1000                                                               
SCF_EXTRAPOLATION=ON                                                            
SCF_CONV=7                                                                      
SCF_MAXCYC=9999                                                                 
CC_CONV=6                                                                       
CC_MAXCYC=999                                                                   
T3_EXTRAPOL=ON                                                                  
REFERENCE=RHF                                                                   
CHARGE=+0                                                                       
MULT=1                                                                          
ABCDTYPE=STANDARD                                                               
#OCCUPATION=3-2-2-0-1-0-0-0/3-1-1-0-1-0-0-0                                     
MEM=19                                                                          
MEM_UNIT=GB                                                                     
BASIS=SPECIAL)                                                                  
                                                                                
O:V9Z-FELLER                                                                    
H:V9Z-FELLER                                                                    
H:V9Z-FELLER                                                                    
                                                                                
********************************************************************************
  @GTFLGS-W, Keyword #DROPMO not known and is ignored.
  @GTFLGS-W, Keyword #SCF_DAMPING not known and is ignored.
  @GTFLGS-W, Keyword #OCCUPATION not known and is ignored.
    -------------------------------------------------------------------
                    CFOUR Control Parameters 
    -------------------------------------------------------------------
        External           Internal           Value            Units
          Name               Name
    -------------------------------------------------------------------
       ABCDTYPE             IABCDT         STANDARD     [  0]   ***   
       ANHARMONIC           IANHAR         OFF          [  0]   ***   
       ANH_ALGORIT          IANALG         STANDARD     [  0]   ***   
       ANH_DERIVAT          IANDER         SECOND       [  1]   ***   
       ANH_STEPSIZ          ICUBST             50000          x 10-6  
       ANH_SYMMETR          IANHSM         ABELIAN      [  0]   ***   
       AO_LADDERS           IAOLAD         SINGLEPASS   [  1]   ***   
       BASIS                IBASIS         SPECIAL      [  0]   ***   
       BREIT                IBREIT         OFF          [  0]   ***   
       BRUCK_CONV           IBRTOL          10D-  4             ***   
       BRUECKNER            IBRKNR             OFF      [  0]   ***   
       BUFFERSIZE           IBUFFS            600               ***   
       CACHE_RECS           ICHREC             10               ***   
       CALCLEVEL            ICLLVL           CCSD       [ 10]   ***   
       CCORBOPT             ICCORB             OFF      [  0] x 0.01  
       CC_CONV              ICCCNV          10D-  6             ***   
       CC_EXPORDER          ICCEOR              5               ***   
       CC_EXTRAPOL          ICCEXT             DIIS     [  1]   ***   
       CC_MAXCYC            ICCCYC            999              cycles 
       CC_PROGRAM           ICCPRO         MRCC         [  2]   ***   
       CHARGE               ICHRGE              0               ***   
       CHOLESKY             ICHOLE         OFF          [  0]   ***   
       CIS_CONV             ICISTL              5               ***   
       COMM_SIZE            IPSIZE            ***               ***   
       CONSTANT             ICONST         OLD          [  1]   ***   
       CONTINUUM            ICONTU         NONE         [  0]   ***   
       CONTRACTION          ICNTYP          GENERAL     [  1]   ***   
       COORDINATES          ICOORD         INTERNAL     [  0]   ***   
       CPHF_CONVER          ICPHFT          10D- 16             ***   
       CPHF_MAXCYC          ICPHFC             64              cycles 
       CUBIC                ICUBIC         OFF          [  0]   ***   
       CURVILINEAR          ICURVY            OFF       [  0]   ***   
       DBOC                 IDBOC          OFF          [  0]   ***   
       DCT                  IDCT           OFF          [  0]   ***   
       DERIV_LEV            IDRLVL            ZERO      [  0]   ***   
       DIAG_MRCC            IEOMST          10D-  0             ***   
       DIFF_TYPE            IDIFTY         RELAXED      [  0]   ***   
       DIRECT               IDIRCT         OFF          [  0]   ***   
       DROPMO               IDRPMO      NONE         
       ECP                  IECP           OFF          [  0]   ***   
       EIGENVECTOR          IVEC                1               ***   
       EL_ANHARM            IELANH         OFF          [  0]   ***   
       EOMFOLLOW            IEOMSR         ENERGY       [  0]   ***   
       EOM_MRCC             IMRCCE         NEW          [  1]   ***   
       EOM_NONIT            EOMNON         OFF          [  0]   ***   
       EOM_NSING            IEOMSI          10D-  0             ***   
       EOM_NSTATES          IMRCCD         DAVIDSON     [  0]   ***   
       EOM_NTRIP            IEOMTR          10D-  0             ***   
       EOM_ORDER            IEXORD         ENERGY       [  0]   ***   
       ESTATE_CONV          IEXTOL          10D-  5             ***   
       ESTATE_DIAG          IEXDIG         ITERATIVE    [  0]   ***   
       ESTATE_LOCK          IESLOC         ON           [  1]   ***   
       ESTATE_MAXC          IEXMXC             20               ***   
       ESTATE_PROP          IEXPRP         OFF          [  0]   ***   
       ESTATE_SYM           IEXSYM   2,  2,  2,  2,  2,  2,  2,  2,
       EVAL_HESS            IRECAL              0            # of cyc.
       EXCITATION           IEXCIT              0               ***   
       EXCITE               IEXCIT         EOMEE        [  3]   ***   
       FCGRADNEW            IFCGNW         OFF          [  0]   ***   
       FC_FIELD             IFINFC              0             x 10-6  
       FD_CALTYPE           IFDCAL         GRADONLY     [  0]   ***   
       FD_PROJECT           IFDPRJ         OFF          [  1]   ***   
       FD_STEPSIZE          IDISFD              0            10-4 bohr
       FD_USEGROUP          IFDGRP         FULL         [  0]   ***   
       FILE_RECSIZ          IFLREC              4096           words  
       FINITE_PERT          IFIPER              0             x 10-6  
       FIXGEOM              IFIXGM         OFF          [  0]   ***   
       FOCK                 IFOCK          AO           [  1]   ***   
       FREQ_ALGORI          IVIALG         STANDARD     [  0]   ***   
       FROZEN_CORE          IFROCO         ON           [  1]   ***   
       FROZEN_VIRT          IFROVI         OFF          [  0]   ***   
       GAMMA_ABCD           IGABCD         STORE        [  0]   ***   
       GAMMA_ABCI           IGABCI         STORE        [  0]   ***   
       GENBAS_1             IGNBS1              0               ***   
       GENBAS_2             IGNBS2              0               ***   
       GENBAS_3             IGNBS3              0               ***   
       GENBAS_4             IGNBS4              0               ***   
       GEO_CONV             ICONTL              5              H/bohr 
       GEO_MAXCYC           IOPTCY             50               ***   
       GEO_MAXSTEP          IMXSTP            300            millibohr
       GEO_METHOD           INR            SINGLE_POINT [  5]   ***   
       GIAO                 IGIAO          OFF          [  1]   ***   
       GIMIC                IGIMIC         OFF          [  0]   ***   
       GRID                 IGRID          OFF          [  0]   ***   
       GRID_ALGO            IGALGO         SERIAL       [  0]   ***   
       GUESS                IGUESS            MOREAD    [  0]   ***   
       HBAR                 IHBAR               ON      [  1]   ***   
       HESS_TYPE            IHESTP         SCF          [  0]   ***   
       HF2_FILE             IHF2Fl         USE          [  1]   ***   
       HFSTABILITY          ISTABL         OFF          [  0]   ***   
       INCORE               INCORE             OFF      [  0]   ***   
       INPUT_MRCC           IMRCC          OFF          [  0]   ***   
       INTEGRALS            INTTYP             VMOL     [  1]   ***   
       JODA_PRINT           IJPRNT              4               ***   
       LINDEP_TOL           ILINDP              8               ***   
       LINEQ_CONV           IZTACN          10D-  7           cycles  
       LINEQ_EXPOR          ILMAXD              5               ***   
       LINEQ_MAXCY          ILMAXC             50               ***   
       LINEQ_TYPE           ILTYPE         DIIS         [  1]   ***   
       LOCK_ORBOCC          ILOCOC             OFF      [  0]   ***   
       MEMORY_SIZE          IMEMSZ         *********           words  
       MEM_UNIT             IMEMU          GB           [  3]   ***   
       MRCC                 IMRCCC         OFF          [  0]   ***   
       MULTIPLICTY          IMULTP              1               ***   
       NEGEVAL              IDIE             ABORT      [  0]   ***   
       NEWNORM              INEWNO         OFF          [  0]   ***   
       NON-HF               INONHF             OFF      [  0]   ***   
       NTOP_TAMP            ITOPT2             15               ***   
       NUC_MODEL            INUCMO         POINT        [  0]   ***   
       OCCUPATION           IOCCU   ESTIMATED BY SCF 
       OPEN-SHELL           IOPEN          SPIN-ORBITAL [  0]   ***   
       ORBITALS             IORBTP           STANDARD   [  0]   ***   
       PARALLEL             IPARAL         ON           [  1]   ***   
       PARA_INT             IPINTS         ON           [  1]   ***   
       PARA_PRINT           IPPRIN              0               ***   
       PERT_ORB             IPTORB         STANDARD     [  0]   ***   
       POINTS               IGRDFD              0               ***   
       PRINT                IPRNT               4               ***   
       PROPS                IPROPS             OFF      [  0]   ***   
       PROP_INTEGR          IINTYP         INTERNAL     [  0]   ***   
       PSI                  IPSI           OFF          [  0]   ***   
       QUARTIC              IQUART         OFF          [  0]   ***   
       RAMAN_INT            IRAMIN         OFF          [  0]   ***   
       RAMAN_ORB            IRAMRE         UNRELAXED    [  0]   ***   
       RDO                  IRDOFM             OFF      [  0]   ***   
       REFERENCE            IREFNC             RHF      [  0]   ***   
       RELATIVIST           IRELAT         OFF          [  0]   ***   
       RELAX_DENS           IRDENS             OFF      [  0]   ***   
       RESET_FLAGS          IRESET             OFF      [  0]   ***   
       RESTART_CC           ICCRES         OFF          [  0]   ***   
       ROT_EVEC             ROTVEC              0               ***   
       SAVE_INTS            ISVINT              ON      [  1]   ***   
       SCALE_ON             ISTCRT              0               ***   
       SCF_CONV             ISCFCV          10D-  7             ***   
       SCF_DAMPING          IDAMP               0             x 10-3  
       SCF_EXPORDE          IRPPOR              6               ***   
       SCF_EXPSTAR          IRPPLS              5               ***   
       SCF_EXTRAPO          IRPP                ON      [  1]   ***   
       SCF_MAXCYC           ISCFCY            ***              cycles 
       SCF_NOSTOP           ISCFST         OFF          [  0]   ***   
       SCF_PRINT            ISCFPR              0               ***   
       SD_FIELD             IFINSD              0             x 10-6  
       SEQUENCE             ISEQUE         OFF          [  0]   ***   
       SOPERT               IPERSO         OFF          [  0]   ***   
       SPHERICAL            IDFGHI             ON       [  1]   ***   
       SPINORBIT            ISOCAL         OFF          [  0]   ***   
       SPINROTATIO          ISRCON         OFF          [  0]   ***   
       SPIN_FLIP            ISPFLP         OFF          [  0]   ***   
       SPIN_ORBIT           ISPORB         OFF          [  0]   ***   
       SPIN_SCAL            ISCSMP         OFF          [  0]   ***   
       SUBGROUP             ISUBGP         DEFAULT      [  0]   ***   
       SUBGRPAXIS           ISBXYZ         X            [  0]   ***   
       SYMMETRY             ISYM             ON         [  0]   ***   
       SYM_CHECK            ISYMCK         OVERRIDE     [  1]   ***   
       T3_EXTRAPOL          IT3EXT         ON           [  1]   ***   
       TAMP_SUM             IEVERY              5               ***   
       TESTSUITE            ITESTS         OFF          [  0]   ***   
       THERMOCH             ITHERM         OFF          [  0]   ***   
       TOL_CHOLESK          ITOLCH          10D-  4             ***   
       TRANGRAD             IRESRM         OFF          [  0]   ***   
       TRANS_INV            ITRAIN         USE          [  0]   ***   
       TREAT_PERT           ITREAT         SIMULTANEOUS [  0]   ***   
       UIJ_THRESHO          IUIJTH              1               ***   
       UNITS                IUNITS         ANGSTROM     [  0]   ***   
       UNOS                 IUNOS          OFF          [  0]   ***   
       UPDATE_HESS          IHUPDT         ON           [  1]   ***   
       VIBPHASE             ISETPH         STANDARD     [  0]   ***   
       VIBRATION            IVIB              NO        [  0]   ***   
       VIB_ALGORIT          IGEALG         STANDARD     [  0]   ***   
       VNATORB              IVNORB         OFF          [  0]   ***   
       VTRAN                IVTRAN         FULL/PARTIAL [  0]   ***   
       XFIELD               IXEFLD              0             x 10-6  
       XFORM_TOL            IXFTOL          10D- 18             ***   
       YFIELD               IYEFLD              0             x 10-6  
       ZFIELD               IZEFLD              0             x 10-6  
    -------------------------------------------------------------------
   3 entries found in Z-matrix 
   Job Title : TITLE                                                                           
 Variable names read by FETCHZ
  1           
  2           
  3           
  4 R         
  5           
  6           
  7 R         
  8 A         
  9           
 Atomic symbols read by FETCHZ
  1 O    
  2 H    
  3 H    
 Connectivity matrix read by FETCHZ
  1   0
  2   0
  3   0
  4   1
  5   0
  6   0
  7   1
  8   2
  9   0
   There are  2 unique internal coordinates.
   Of these,  0 will be optimized.
   User supplied Z-matrix: 
--------------------------------------------------------------------------------
       SYMBOL    BOND      LENGTH    ANGLE     ANGLE     DIHED     ANGLE
                  TO      (ANGST)    WRT      (DEG)      WRT      (DEG)
--------------------------------------------------------------------------------
        O    
        H          1         R    
        H          1         R          2        A    
                  *Initial values for internal coordinates* 
                      Name             Value
                        R               0.9576257000
                        A             104.5100000000
--------------------------------------------------------------------------------
  1  O          8    15.99491
  2  H          1     1.00783
  3  H          1     1.00783
   15.9949146300
    1.0078250350
    1.0078250350
 After translation to center of mass coordinates 
       -0.098033508258    0.000000000000   -0.075891969219
       -0.098033508258    0.000000000000    1.733758712944
        1.653896421974    0.000000000000   -0.529298090715
  Inertia tensor (amu*bohr**2)
    3.40391    0.00000    0.93455
    0.00000    6.32410    0.00000
    0.93455    0.00000    2.92018
    Inertia tensor:
        3.403913567470    0.000000000000    0.934549268627
        0.000000000000    6.324097332824    0.000000000000
        0.934549268627    0.000000000000    2.920183765354
    Principal axis orientation for molecular system: 
        0.000000000000   -0.123976448301    0.000000000000
       -1.430968603519    0.983798098796    0.000000000000
        1.430968603519    0.983798098796    0.000000000000
    Diagonalized inertia tensor:
        2.196708847563    0.000000000000    0.000000000000
        0.000000000000    4.127388485261    0.000000000000
        0.000000000000    0.000000000000    6.324097332824
    Eigenvectors of inertia tensor: 
        0.612148277021    0.790742996769    0.000000000000
        0.000000000000    0.000000000000    1.000000000000
       -0.790742996769    0.612148277021    0.000000000000
 factor:   60.1997200000000     
   Rotational constants (in cm-1): 
          9.5191008031            14.5854261635            27.4045056389
   Rotational constants (in MHz): 
     285375.5027524238        437260.1373131822        821566.5256739719
  @SYMMETRY-I, Handedness of inertial frame:-1.00000
  @SYMMETRY-I, Sense of inertial frame y-axis will be changed.
  @SYMMETRY-I, The symmetry group is 1-fold degenerate.
  @SYMMETRY-I, The molecule belongs to an Abelian group.
   Principal axis orientation for molecule:
        0.000000000000    0.123976448301    0.000000000000
       -1.430968603519   -0.983798098796    0.000000000000
        1.430968603519   -0.983798098796    0.000000000000
   Reflection in plane  3 is a valid symmetry operation.
   Rotation about  2 is a valid symmetry operation 
   Reflection in plane  1 is a valid symmetry operation.
  Symmetry bits:    5   2   0
********************************************************************************
   The full molecular point group is C2v .
   The largest Abelian subgroup of the full molecular point group is C2v .
   The computational point group is C2v .
********************************************************************************
--------------------------------------------------------------------------------
   Analysis of internal coordinates specified by Z-matrix 
--------------------------------------------------------------------------------
   *The nuclear repulsion energy is    9.190899028787090 a.u.
   *There are   2 degrees of freedom within the tot. symm. molecular subspace.
   *Z-matrix requests optimization of   0 coordinates.
   *The optimization is constrained.
   *The following   2 parameters can have non-zero 
    derivatives within the totally symmetric subspace:
             A    [ 3]  R    [ 1]
   *The following   0 parameters are to be optimized:

   *The following coordinates must be varied in an  unconstrained optimization.
             A    [ 3]  R    [ 1]
--------------------------------------------------------------------------------
 ----------------------------------------------------------------
 Z-matrix   Atomic            Coordinates (in bohr)
  Symbol    Number           X              Y              Z
 ----------------------------------------------------------------
     O         8         0.00000000     0.00000000     0.12397645
     H         1         0.00000000    -1.43096860    -0.98379810
     H         1         0.00000000     1.43096860    -0.98379810
 ----------------------------------------------------------------
   Interatomic distance matrix (Angstroms) 
 
                 O             H             H    
                [ 1]        [ 2]        [ 3]
  O    [ 1]     0.00000
  H    [ 2]     0.95763     0.00000
  H    [ 3]     0.95763     1.51447     0.00000
  Inertia tensor (amu*bohr**2)
    6.32410    0.00000    0.00000
    0.00000    2.19671    0.00000
    0.00000    0.00000    4.12739
   Rotational constants (in cm-1): 
          9.5191008031            27.4045056389            14.5854261635
   Rotational constants (in MHz): 
     285375.5027524236        821566.5256739716        437260.1373131821
  @GTFLGS-W, Keyword #DROPMO not known and is ignored.
  @GTFLGS-W, Keyword #SCF_DAMPING not known and is ignored.
  @GTFLGS-W, Keyword #OCCUPATION not known and is ignored.
  There is   1 frozen-core orbital.
  There are **** basis functions.
 @GEOPT-W, Archive file not created for single-point calculation.
error 
--executable xjoda finished with status     0 in        0.54 seconds (walltime).
 --invoking executable--
/project1/nike/cfour_v2.00beta_withApril2019xnmol/bin/xvmol
Running with 24 threads/proc

********************************************************************************
                   INPUT FROM MOL FILE                                          
********************************************************************************
INTGRL        1    0    1    0    0    0    0    0    0
         *** CFOUR Program System (Release V0.1) *** 
TITLE
    2    2 X  Y       0.10E-08              0    0
   9999.00      3.00
          8.00000000    1   10    1    1    1    1    1    1    1    1    1
    1
O #1   0.000000000000000   0.000000000000000   0.123976448300873
   22   10
   14977011.0000000       9.000000000000000E-008 -2.000000000000000E-008
  0.000000000000000E+000  0.000000000000000E+000  0.000000000000000E+000
  0.000000000000000E+000  0.000000000000000E+000  0.000000000000000E+000
  0.000000000000000E+000  0.000000000000000E+000
   2218105.60000000       7.400000000000000E-007 -1.700000000000000E-007
  0.000000000000000E+000  0.000000000000000E+000  0.000000000000000E+000
  0.000000000000000E+000  0.000000000000000E+000  0.000000000000000E+000
  0.000000000000000E+000  0.000000000000000E+000
   497972.050000000       4.010000000000000E-006 -9.100000000000000E-007
  0.000000000000000E+000  0.000000000000000E+000  0.000000000000000E+000
  0.000000000000000E+000  0.000000000000000E+000  0.000000000000000E+000
  0.000000000000000E+000  0.000000000000000E+000
   136123.290000000       1.806000000000000E-005 -4.100000000000000E-006
  0.000000000000000E+000  0.000000000000000E+000  0.000000000000000E+000
  0.000000000000000E+000  0.000000000000000E+000  0.000000000000000E+000
  0.000000000000000E+000  0.000000000000000E+000
   42655.7170000000       6.904000000000000E-005 -1.566000000000000E-005
  0.000000000000000E+000  0.000000000000000E+000  0.000000000000000E+000
  0.000000000000000E+000  0.000000000000000E+000  0.000000000000000E+000
  0.000000000000000E+000  0.000000000000000E+000
   15004.6890000000       2.309100000000000E-004 -5.241000000000000E-005
  0.000000000000000E+000  0.000000000000000E+000  0.000000000000000E+000
  0.000000000000000E+000  0.000000000000000E+000  0.000000000000000E+000
  0.000000000000000E+000  0.000000000000000E+000
   5776.15000000000       6.999100000000000E-004 -1.589300000000000E-004
  0.000000000000000E+000  0.000000000000000E+000  0.000000000000000E+000
  0.000000000000000E+000  0.000000000000000E+000  0.000000000000000E+000
  0.000000000000000E+000  0.000000000000000E+000
   2375.75410000000       1.995130000000000E-003 -4.538100000000000E-004
  0.000000000000000E+000  0.000000000000000E+000  0.000000000000000E+000
  0.000000000000000E+000  0.000000000000000E+000  0.000000000000000E+000
  0.000000000000000E+000  0.000000000000000E+000
   1017.44250000000       5.496410000000000E-003 -1.253940000000000E-003
  0.000000000000000E+000  0.000000000000000E+000  0.000000000000000E+000
  0.000000000000000E+000  0.000000000000000E+000  0.000000000000000E+000
  0.000000000000000E+000  0.000000000000000E+000
   448.248580000000       1.449086000000000E-002 -3.331030000000000E-003
  0.000000000000000E+000  0.000000000000000E+000  0.000000000000000E+000
  0.000000000000000E+000  0.000000000000000E+000  0.000000000000000E+000
  0.000000000000000E+000  0.000000000000000E+000
   203.162260000000       3.579745000000000E-002 -8.353410000000000E-003
  0.000000000000000E+000  0.000000000000000E+000  0.000000000000000E+000
  0.000000000000000E+000  0.000000000000000E+000  0.000000000000000E+000
  0.000000000000000E+000  0.000000000000000E+000
   94.8087090000000       8.084495999999999E-002 -1.946893000000000E-002
  0.000000000000000E+000  0.000000000000000E+000  0.000000000000000E+000
  0.000000000000000E+000  0.000000000000000E+000  0.000000000000000E+000
  0.000000000000000E+000  0.000000000000000E+000
   45.4553660000000       0.160517140000000      -4.103896000000000E-002
  0.000000000000000E+000  0.000000000000000E+000  0.000000000000000E+000
  0.000000000000000E+000  0.000000000000000E+000  0.000000000000000E+000
  0.000000000000000E+000  0.000000000000000E+000
   22.3219240000000       0.262764690000000      -7.572005000000000E-002
  0.000000000000000E+000  0.000000000000000E+000  0.000000000000000E+000
  0.000000000000000E+000  0.000000000000000E+000  0.000000000000000E+000
  0.000000000000000E+000  0.000000000000000E+000
   11.1990240000000       0.000000000000000E+000  0.000000000000000E+000
   1.00000000000000       0.000000000000000E+000  0.000000000000000E+000
  0.000000000000000E+000  0.000000000000000E+000  0.000000000000000E+000
  0.000000000000000E+000  0.000000000000000E+000
   5.70236100000000       0.000000000000000E+000  0.000000000000000E+000
  0.000000000000000E+000   1.00000000000000       0.000000000000000E+000
  0.000000000000000E+000  0.000000000000000E+000  0.000000000000000E+000
  0.000000000000000E+000  0.000000000000000E+000
   2.88556500000000       0.000000000000000E+000  0.000000000000000E+000
  0.000000000000000E+000  0.000000000000000E+000   1.00000000000000     
  0.000000000000000E+000  0.000000000000000E+000  0.000000000000000E+000
  0.000000000000000E+000  0.000000000000000E+000
   1.45704800000000       0.000000000000000E+000  0.000000000000000E+000
  0.000000000000000E+000  0.000000000000000E+000  0.000000000000000E+000
   1.00000000000000       0.000000000000000E+000  0.000000000000000E+000
  0.000000000000000E+000  0.000000000000000E+000
  0.724892000000000       0.000000000000000E+000  0.000000000000000E+000
  0.000000000000000E+000  0.000000000000000E+000  0.000000000000000E+000
  0.000000000000000E+000   1.00000000000000       0.000000000000000E+000
  0.000000000000000E+000  0.000000000000000E+000
  0.361727000000000       0.000000000000000E+000  0.000000000000000E+000
  0.000000000000000E+000  0.000000000000000E+000  0.000000000000000E+000
  0.000000000000000E+000  0.000000000000000E+000   1.00000000000000     
  0.000000000000000E+000  0.000000000000000E+000
  0.182450000000000       0.000000000000000E+000  0.000000000000000E+000
  0.000000000000000E+000  0.000000000000000E+000  0.000000000000000E+000
  0.000000000000000E+000  0.000000000000000E+000  0.000000000000000E+000
   1.00000000000000       0.000000000000000E+000
  9.016399999999999E-002  0.000000000000000E+000  0.000000000000000E+000
  0.000000000000000E+000  0.000000000000000E+000  0.000000000000000E+000
  0.000000000000000E+000  0.000000000000000E+000  0.000000000000000E+000
  0.000000000000000E+000   1.00000000000000     
   16    9
   8007.65480000000       1.390000000000000E-006  0.000000000000000E+000
  0.000000000000000E+000  0.000000000000000E+000  0.000000000000000E+000
  0.000000000000000E+000  0.000000000000000E+000  0.000000000000000E+000
  0.000000000000000E+000
   2020.74260000000       1.095000000000000E-005  0.000000000000000E+000
  0.000000000000000E+000  0.000000000000000E+000  0.000000000000000E+000
  0.000000000000000E+000  0.000000000000000E+000  0.000000000000000E+000
  0.000000000000000E+000
   691.584960000000       5.981000000000000E-005  0.000000000000000E+000
  0.000000000000000E+000  0.000000000000000E+000  0.000000000000000E+000
  0.000000000000000E+000  0.000000000000000E+000  0.000000000000000E+000
  0.000000000000000E+000
   266.033950000000       2.915400000000000E-004  0.000000000000000E+000
  0.000000000000000E+000  0.000000000000000E+000  0.000000000000000E+000
  0.000000000000000E+000  0.000000000000000E+000  0.000000000000000E+000
  0.000000000000000E+000
   109.630210000000       1.216150000000000E-003  0.000000000000000E+000
  0.000000000000000E+000  0.000000000000000E+000  0.000000000000000E+000
  0.000000000000000E+000  0.000000000000000E+000  0.000000000000000E+000
  0.000000000000000E+000
   48.2797290000000       4.369480000000000E-003  0.000000000000000E+000
  0.000000000000000E+000  0.000000000000000E+000  0.000000000000000E+000
  0.000000000000000E+000  0.000000000000000E+000  0.000000000000000E+000
  0.000000000000000E+000
   22.1582440000000       1.370154000000000E-002  0.000000000000000E+000
  0.000000000000000E+000  0.000000000000000E+000  0.000000000000000E+000
  0.000000000000000E+000  0.000000000000000E+000  0.000000000000000E+000
  0.000000000000000E+000
   10.5074530000000       3.718377000000000E-002  0.000000000000000E+000
  0.000000000000000E+000  0.000000000000000E+000  0.000000000000000E+000
  0.000000000000000E+000  0.000000000000000E+000  0.000000000000000E+000
  0.000000000000000E+000
   5.15248700000000       0.000000000000000E+000   1.00000000000000     
  0.000000000000000E+000  0.000000000000000E+000  0.000000000000000E+000
  0.000000000000000E+000  0.000000000000000E+000  0.000000000000000E+000
  0.000000000000000E+000
   2.60261300000000       0.000000000000000E+000  0.000000000000000E+000
   1.00000000000000       0.000000000000000E+000  0.000000000000000E+000
  0.000000000000000E+000  0.000000000000000E+000  0.000000000000000E+000
  0.000000000000000E+000
   1.33577600000000       0.000000000000000E+000  0.000000000000000E+000
  0.000000000000000E+000   1.00000000000000       0.000000000000000E+000
  0.000000000000000E+000  0.000000000000000E+000  0.000000000000000E+000
  0.000000000000000E+000
  0.689041000000000       0.000000000000000E+000  0.000000000000000E+000
  0.000000000000000E+000  0.000000000000000E+000   1.00000000000000     
  0.000000000000000E+000  0.000000000000000E+000  0.000000000000000E+000
  0.000000000000000E+000
  0.355859000000000       0.000000000000000E+000  0.000000000000000E+000
  0.000000000000000E+000  0.000000000000000E+000  0.000000000000000E+000
   1.00000000000000       0.000000000000000E+000  0.000000000000000E+000
  0.000000000000000E+000
  0.183315000000000       0.000000000000000E+000  0.000000000000000E+000
  0.000000000000000E+000  0.000000000000000E+000  0.000000000000000E+000
  0.000000000000000E+000   1.00000000000000       0.000000000000000E+000
  0.000000000000000E+000
  9.311999999999999E-002  0.000000000000000E+000  0.000000000000000E+000
  0.000000000000000E+000  0.000000000000000E+000  0.000000000000000E+000
  0.000000000000000E+000  0.000000000000000E+000   1.00000000000000     
  0.000000000000000E+000
  4.403500000000000E-002  0.000000000000000E+000  0.000000000000000E+000
  0.000000000000000E+000  0.000000000000000E+000  0.000000000000000E+000
  0.000000000000000E+000  0.000000000000000E+000  0.000000000000000E+000
   1.00000000000000     
    8    8
   22.9968540000000        1.00000000000000       0.000000000000000E+000
  0.000000000000000E+000  0.000000000000000E+000  0.000000000000000E+000
  0.000000000000000E+000  0.000000000000000E+000  0.000000000000000E+000
   11.9267280000000       0.000000000000000E+000   1.00000000000000     
  0.000000000000000E+000  0.000000000000000E+000  0.000000000000000E+000
  0.000000000000000E+000  0.000000000000000E+000  0.000000000000000E+000
   6.18549150000000       0.000000000000000E+000  0.000000000000000E+000
   1.00000000000000       0.000000000000000E+000  0.000000000000000E+000
  0.000000000000000E+000  0.000000000000000E+000  0.000000000000000E+000
   3.20794650000000       0.000000000000000E+000  0.000000000000000E+000
  0.000000000000000E+000   1.00000000000000       0.000000000000000E+000
  0.000000000000000E+000  0.000000000000000E+000  0.000000000000000E+000
   1.66371910000000       0.000000000000000E+000  0.000000000000000E+000
  0.000000000000000E+000  0.000000000000000E+000   1.00000000000000     
  0.000000000000000E+000  0.000000000000000E+000  0.000000000000000E+000
  0.862845200000000       0.000000000000000E+000  0.000000000000000E+000
  0.000000000000000E+000  0.000000000000000E+000  0.000000000000000E+000
   1.00000000000000       0.000000000000000E+000  0.000000000000000E+000
  0.447492500000000       0.000000000000000E+000  0.000000000000000E+000
  0.000000000000000E+000  0.000000000000000E+000  0.000000000000000E+000
  0.000000000000000E+000   1.00000000000000       0.000000000000000E+000
  0.232080500000000       0.000000000000000E+000  0.000000000000000E+000
  0.000000000000000E+000  0.000000000000000E+000  0.000000000000000E+000
  0.000000000000000E+000  0.000000000000000E+000   1.00000000000000     
    7    7
   12.0996210000000        1.00000000000000       0.000000000000000E+000
  0.000000000000000E+000  0.000000000000000E+000  0.000000000000000E+000
  0.000000000000000E+000  0.000000000000000E+000
   6.66042240000000       0.000000000000000E+000   1.00000000000000     
  0.000000000000000E+000  0.000000000000000E+000  0.000000000000000E+000
  0.000000000000000E+000  0.000000000000000E+000
   3.66633190000000       0.000000000000000E+000  0.000000000000000E+000
   1.00000000000000       0.000000000000000E+000  0.000000000000000E+000
  0.000000000000000E+000  0.000000000000000E+000
   2.01818870000000       0.000000000000000E+000  0.000000000000000E+000
  0.000000000000000E+000   1.00000000000000       0.000000000000000E+000
  0.000000000000000E+000  0.000000000000000E+000
   1.11094300000000       0.000000000000000E+000  0.000000000000000E+000
  0.000000000000000E+000  0.000000000000000E+000   1.00000000000000     
  0.000000000000000E+000  0.000000000000000E+000
  0.611535600000000       0.000000000000000E+000  0.000000000000000E+000
  0.000000000000000E+000  0.000000000000000E+000  0.000000000000000E+000
   1.00000000000000       0.000000000000000E+000
  0.336629200000000       0.000000000000000E+000  0.000000000000000E+000
  0.000000000000000E+000  0.000000000000000E+000  0.000000000000000E+000
  0.000000000000000E+000   1.00000000000000     
    6    6
   13.1300890000000        1.00000000000000       0.000000000000000E+000
  0.000000000000000E+000  0.000000000000000E+000  0.000000000000000E+000
  0.000000000000000E+000
   7.10347900000000       0.000000000000000E+000   1.00000000000000     
  0.000000000000000E+000  0.000000000000000E+000  0.000000000000000E+000
  0.000000000000000E+000
   3.84303660000000       0.000000000000000E+000  0.000000000000000E+000
   1.00000000000000       0.000000000000000E+000  0.000000000000000E+000
  0.000000000000000E+000
   2.07911230000000       0.000000000000000E+000  0.000000000000000E+000
  0.000000000000000E+000   1.00000000000000       0.000000000000000E+000
  0.000000000000000E+000
   1.12481570000000       0.000000000000000E+000  0.000000000000000E+000
  0.000000000000000E+000  0.000000000000000E+000   1.00000000000000     
  0.000000000000000E+000
  0.608533900000000       0.000000000000000E+000  0.000000000000000E+000
  0.000000000000000E+000  0.000000000000000E+000  0.000000000000000E+000
   1.00000000000000     
    5    5
   8.36244080000000        1.00000000000000       0.000000000000000E+000
  0.000000000000000E+000  0.000000000000000E+000  0.000000000000000E+000
   4.71149270000000       0.000000000000000E+000   1.00000000000000     
  0.000000000000000E+000  0.000000000000000E+000  0.000000000000000E+000
   2.65450770000000       0.000000000000000E+000  0.000000000000000E+000
   1.00000000000000       0.000000000000000E+000  0.000000000000000E+000
   1.49557930000000       0.000000000000000E+000  0.000000000000000E+000
  0.000000000000000E+000   1.00000000000000       0.000000000000000E+000
  0.842626100000000       0.000000000000000E+000  0.000000000000000E+000
  0.000000000000000E+000  0.000000000000000E+000   1.00000000000000     
    4    4
   8.66545850000000        1.00000000000000       0.000000000000000E+000
  0.000000000000000E+000  0.000000000000000E+000
   4.69128580000000       0.000000000000000E+000   1.00000000000000     
  0.000000000000000E+000  0.000000000000000E+000
   2.53975740000000       0.000000000000000E+000  0.000000000000000E+000
   1.00000000000000       0.000000000000000E+000
   1.37496800000000       0.000000000000000E+000  0.000000000000000E+000
  0.000000000000000E+000   1.00000000000000     
    3    3
   7.14765530000000        1.00000000000000       0.000000000000000E+000
  0.000000000000000E+000
   4.15533180000000       0.000000000000000E+000   1.00000000000000     
  0.000000000000000E+000
   1.62078340000000       0.000000000000000E+000  0.000000000000000E+000
   1.00000000000000     
    2    2
   6.38401310000000        1.00000000000000       0.000000000000000E+000
   3.01256400000000       0.000000000000000E+000   1.00000000000000     
    1    1
   4.38286800000000        1.00000000000000     
          1.00000000    1    9    1    1    1    1    1    1    1    1    1
H #2   0.000000000000000  -1.430968603519347  -0.983798098795531
   17   10
   284997.230000000       1.300000000000000E-007  0.000000000000000E+000
  0.000000000000000E+000  0.000000000000000E+000  0.000000000000000E+000
  0.000000000000000E+000  0.000000000000000E+000  0.000000000000000E+000
  0.000000000000000E+000  0.000000000000000E+000
   13941.0530000000       2.890000000000000E-006  0.000000000000000E+000
  0.000000000000000E+000  0.000000000000000E+000  0.000000000000000E+000
  0.000000000000000E+000  0.000000000000000E+000  0.000000000000000E+000
  0.000000000000000E+000  0.000000000000000E+000
   3471.44370000000       5.720000000000000E-006  0.000000000000000E+000
  0.000000000000000E+000  0.000000000000000E+000  0.000000000000000E+000
  0.000000000000000E+000  0.000000000000000E+000  0.000000000000000E+000
  0.000000000000000E+000  0.000000000000000E+000
   1903.16270000000       1.753000000000000E-005  0.000000000000000E+000
  0.000000000000000E+000  0.000000000000000E+000  0.000000000000000E+000
  0.000000000000000E+000  0.000000000000000E+000  0.000000000000000E+000
  0.000000000000000E+000  0.000000000000000E+000
   623.293200000000       7.214000000000000E-005  0.000000000000000E+000
  0.000000000000000E+000  0.000000000000000E+000  0.000000000000000E+000
  0.000000000000000E+000  0.000000000000000E+000  0.000000000000000E+000
  0.000000000000000E+000  0.000000000000000E+000
   290.360420000000       1.205600000000000E-004  0.000000000000000E+000
  0.000000000000000E+000  0.000000000000000E+000  0.000000000000000E+000
  0.000000000000000E+000  0.000000000000000E+000  0.000000000000000E+000
  0.000000000000000E+000  0.000000000000000E+000
   126.582320000000       5.248400000000001E-004  0.000000000000000E+000
  0.000000000000000E+000  0.000000000000000E+000  0.000000000000000E+000
  0.000000000000000E+000  0.000000000000000E+000  0.000000000000000E+000
  0.000000000000000E+000  0.000000000000000E+000
   44.6925720000000       2.015730000000000E-003  0.000000000000000E+000
  0.000000000000000E+000  0.000000000000000E+000  0.000000000000000E+000
  0.000000000000000E+000  0.000000000000000E+000  0.000000000000000E+000
  0.000000000000000E+000  0.000000000000000E+000
   16.0023360000000       6.865350000000000E-003   1.00000000000000     
  0.000000000000000E+000  0.000000000000000E+000  0.000000000000000E+000
  0.000000000000000E+000  0.000000000000000E+000  0.000000000000000E+000
  0.000000000000000E+000  0.000000000000000E+000
   6.08103800000000       0.000000000000000E+000  0.000000000000000E+000
   1.00000000000000       0.000000000000000E+000  0.000000000000000E+000
  0.000000000000000E+000  0.000000000000000E+000  0.000000000000000E+000
  0.000000000000000E+000  0.000000000000000E+000
   2.47626500000000       0.000000000000000E+000  0.000000000000000E+000
  0.000000000000000E+000   1.00000000000000       0.000000000000000E+000
  0.000000000000000E+000  0.000000000000000E+000  0.000000000000000E+000
  0.000000000000000E+000  0.000000000000000E+000
   1.07666200000000       0.000000000000000E+000  0.000000000000000E+000
  0.000000000000000E+000  0.000000000000000E+000   1.00000000000000     
  0.000000000000000E+000  0.000000000000000E+000  0.000000000000000E+000
  0.000000000000000E+000  0.000000000000000E+000
  0.488407000000000       0.000000000000000E+000  0.000000000000000E+000
  0.000000000000000E+000  0.000000000000000E+000  0.000000000000000E+000
   1.00000000000000       0.000000000000000E+000  0.000000000000000E+000
  0.000000000000000E+000  0.000000000000000E+000
  0.229309000000000       0.000000000000000E+000  0.000000000000000E+000
  0.000000000000000E+000  0.000000000000000E+000  0.000000000000000E+000
  0.000000000000000E+000   1.00000000000000       0.000000000000000E+000
  0.000000000000000E+000  0.000000000000000E+000
  0.111481000000000       0.000000000000000E+000  0.000000000000000E+000
  0.000000000000000E+000  0.000000000000000E+000  0.000000000000000E+000
  0.000000000000000E+000  0.000000000000000E+000   1.00000000000000     
  0.000000000000000E+000  0.000000000000000E+000
  5.501200000000000E-002  0.000000000000000E+000  0.000000000000000E+000
  0.000000000000000E+000  0.000000000000000E+000  0.000000000000000E+000
  0.000000000000000E+000  0.000000000000000E+000  0.000000000000000E+000
   1.00000000000000       0.000000000000000E+000
  1.998600000000000E-002  0.000000000000000E+000  0.000000000000000E+000
  0.000000000000000E+000  0.000000000000000E+000  0.000000000000000E+000
  0.000000000000000E+000  0.000000000000000E+000  0.000000000000000E+000
  0.000000000000000E+000   1.00000000000000     
    8    8
   21.7018250000000        1.00000000000000       0.000000000000000E+000
  0.000000000000000E+000  0.000000000000000E+000  0.000000000000000E+000
  0.000000000000000E+000  0.000000000000000E+000  0.000000000000000E+000
   10.2961090000000       0.000000000000000E+000   1.00000000000000     
  0.000000000000000E+000  0.000000000000000E+000  0.000000000000000E+000
  0.000000000000000E+000  0.000000000000000E+000  0.000000000000000E+000
   4.88483640000000       0.000000000000000E+000  0.000000000000000E+000
   1.00000000000000       0.000000000000000E+000  0.000000000000000E+000
  0.000000000000000E+000  0.000000000000000E+000  0.000000000000000E+000
   2.31753820000000       0.000000000000000E+000  0.000000000000000E+000
  0.000000000000000E+000   1.00000000000000       0.000000000000000E+000
  0.000000000000000E+000  0.000000000000000E+000  0.000000000000000E+000
   1.09952160000000       0.000000000000000E+000  0.000000000000000E+000
  0.000000000000000E+000  0.000000000000000E+000   1.00000000000000     
  0.000000000000000E+000  0.000000000000000E+000  0.000000000000000E+000
  0.521651700000000       0.000000000000000E+000  0.000000000000000E+000
  0.000000000000000E+000  0.000000000000000E+000  0.000000000000000E+000
   1.00000000000000       0.000000000000000E+000  0.000000000000000E+000
  0.247489900000000       0.000000000000000E+000  0.000000000000000E+000
  0.000000000000000E+000  0.000000000000000E+000  0.000000000000000E+000
  0.000000000000000E+000   1.00000000000000       0.000000000000000E+000
  0.117417900000000       0.000000000000000E+000  0.000000000000000E+000
  0.000000000000000E+000  0.000000000000000E+000  0.000000000000000E+000
  0.000000000000000E+000  0.000000000000000E+000   1.00000000000000     
    7    7
   18.0156320000000        1.00000000000000       0.000000000000000E+000
  0.000000000000000E+000  0.000000000000000E+000  0.000000000000000E+000
  0.000000000000000E+000  0.000000000000000E+000
   9.11221450000000       0.000000000000000E+000   1.00000000000000     
  0.000000000000000E+000  0.000000000000000E+000  0.000000000000000E+000
  0.000000000000000E+000  0.000000000000000E+000
   4.60891160000000       0.000000000000000E+000  0.000000000000000E+000
   1.00000000000000       0.000000000000000E+000  0.000000000000000E+000
  0.000000000000000E+000  0.000000000000000E+000
   2.33116390000000       0.000000000000000E+000  0.000000000000000E+000
  0.000000000000000E+000   1.00000000000000       0.000000000000000E+000
  0.000000000000000E+000  0.000000000000000E+000
   1.17909080000000       0.000000000000000E+000  0.000000000000000E+000
  0.000000000000000E+000  0.000000000000000E+000   1.00000000000000     
  0.000000000000000E+000  0.000000000000000E+000
  0.596378100000000       0.000000000000000E+000  0.000000000000000E+000
  0.000000000000000E+000  0.000000000000000E+000  0.000000000000000E+000
   1.00000000000000       0.000000000000000E+000
  0.301645000000000       0.000000000000000E+000  0.000000000000000E+000
  0.000000000000000E+000  0.000000000000000E+000  0.000000000000000E+000
  0.000000000000000E+000   1.00000000000000     
    6    6
   15.1078510000000        1.00000000000000       0.000000000000000E+000
  0.000000000000000E+000  0.000000000000000E+000  0.000000000000000E+000
  0.000000000000000E+000
   7.87610550000000       0.000000000000000E+000   1.00000000000000     
  0.000000000000000E+000  0.000000000000000E+000  0.000000000000000E+000
  0.000000000000000E+000
   4.10601330000000       0.000000000000000E+000  0.000000000000000E+000
   1.00000000000000       0.000000000000000E+000  0.000000000000000E+000
  0.000000000000000E+000
   2.14056880000000       0.000000000000000E+000  0.000000000000000E+000
  0.000000000000000E+000   1.00000000000000       0.000000000000000E+000
  0.000000000000000E+000
   1.11593270000000       0.000000000000000E+000  0.000000000000000E+000
  0.000000000000000E+000  0.000000000000000E+000   1.00000000000000     
  0.000000000000000E+000
  0.581764000000000       0.000000000000000E+000  0.000000000000000E+000
  0.000000000000000E+000  0.000000000000000E+000  0.000000000000000E+000
   1.00000000000000     
    5    5
   8.37746030000000        1.00000000000000       0.000000000000000E+000
  0.000000000000000E+000  0.000000000000000E+000  0.000000000000000E+000
   4.69296850000000       0.000000000000000E+000   1.00000000000000     
  0.000000000000000E+000  0.000000000000000E+000  0.000000000000000E+000
   2.62895350000000       0.000000000000000E+000  0.000000000000000E+000
   1.00000000000000       0.000000000000000E+000  0.000000000000000E+000
   1.47271310000000       0.000000000000000E+000  0.000000000000000E+000
  0.000000000000000E+000   1.00000000000000       0.000000000000000E+000
  0.824999000000000       0.000000000000000E+000  0.000000000000000E+000
  0.000000000000000E+000  0.000000000000000E+000   1.00000000000000     
    4    4
   7.11152840000000        1.00000000000000       0.000000000000000E+000
  0.000000000000000E+000  0.000000000000000E+000
   4.07185370000000       0.000000000000000E+000   1.00000000000000     
  0.000000000000000E+000  0.000000000000000E+000
   2.33142470000000       0.000000000000000E+000  0.000000000000000E+000
   1.00000000000000       0.000000000000000E+000
   1.33490580000000       0.000000000000000E+000  0.000000000000000E+000
  0.000000000000000E+000   1.00000000000000     
    3    3
   6.03253180000000        1.00000000000000       0.000000000000000E+000
  0.000000000000000E+000
   3.00074000000000       0.000000000000000E+000   1.00000000000000     
  0.000000000000000E+000
   1.49264700000000       0.000000000000000E+000  0.000000000000000E+000
   1.00000000000000     
    2    2
   5.87400000000000        1.00000000000000       0.000000000000000E+000
   2.94400000000000       0.000000000000000E+000   1.00000000000000     
    1    1
   3.59343400000000        1.00000000000000     
FINISH
                                                                                
********************************************************************************

ONE- AND TWO-ELECTRON INTEGRALS OVER SYMMETRY-ADAPTED AOS ARE CALCULATED.


    BASIS FUNCTION NOT NORMALIZED:
    CENTER (AS ORDERED IN MOL FILE): ?
    ANGULAR MOMENTUM TYPE:           S
    OFFSET WITHIN ANGULAR MOMENTUM:  1
    <CHI|CHI>:                       0.2632853395

    BASIS FUNCTION NOT NORMALIZED:
    CENTER (AS ORDERED IN MOL FILE): ?
    ANGULAR MOMENTUM TYPE:           S
    OFFSET WITHIN ANGULAR MOMENTUM:  2
    <CHI|CHI>:                       0.0189042473

    BASIS FUNCTION NOT NORMALIZED:
    CENTER (AS ORDERED IN MOL FILE): ?
    ANGULAR MOMENTUM TYPE:           P
    OFFSET WITHIN ANGULAR MOMENTUM:  1
    <CHI|CHI>:                       0.0027693803

    BASIS FUNCTION NOT NORMALIZED:
    CENTER (AS ORDERED IN MOL FILE): ?
    ANGULAR MOMENTUM TYPE:           S
    OFFSET WITHIN ANGULAR MOMENTUM:  1
    <CHI|CHI>:                       0.0000810113
CARTESIAN GAUSSIANS ARE USED.

2 TYPES OF ATOMS
2 SYMMETRY OPERATIONS

REFLECTION IN THE YZ-PLANE
REFLECTION IN THE XZ-PLANE

INTEGRALS LESS THAN 1e-14 ARE NEGLECTED.

ATOMIC TYPE NUMBER 1:
---------------------

    NUCLEAR CHARGE:                       8
    NUMBER OF SYMMETRY INDEPENDENT ATOMS: 1
    HIGHEST ORBITAL TYPE:                 M

    1 GROUPS OF CGTOS OF S TYPE
    1 GROUPS OF CGTOS OF P TYPE
    1 GROUPS OF CGTOS OF D TYPE
    1 GROUPS OF CGTOS OF F TYPE
    1 GROUPS OF CGTOS OF G TYPE
    1 GROUPS OF CGTOS OF H TYPE
    1 GROUPS OF CGTOS OF I TYPE
    1 GROUPS OF CGTOS OF K TYPE
    1 GROUPS OF CGTOS OF L TYPE
    1 GROUPS OF CGTOS OF M TYPE

    NUCLEAR COORDINATES (IN A.U.) ARE:

    O #1   0.000000000000000   0.000000000000000   0.123976448300873

ATOMIC TYPE NUMBER 2:
---------------------

    NUCLEAR CHARGE:                       1
    NUMBER OF SYMMETRY INDEPENDENT ATOMS: 1
    HIGHEST ORBITAL TYPE:                 L

    1 GROUPS OF CGTOS OF S TYPE
    1 GROUPS OF CGTOS OF P TYPE
    1 GROUPS OF CGTOS OF D TYPE
    1 GROUPS OF CGTOS OF F TYPE
    1 GROUPS OF CGTOS OF G TYPE
    1 GROUPS OF CGTOS OF H TYPE
    1 GROUPS OF CGTOS OF I TYPE
    1 GROUPS OF CGTOS OF K TYPE
    1 GROUPS OF CGTOS OF L TYPE

    NUCLEAR COORDINATES (IN A.U.) ARE:

    H #2   0.000000000000000  -1.430968603519347  -0.983798098795531

INTERNUCLEAR DISTANCES (A):

    FOR ATOM O #1 (COORDINATES:   0.00000   0.00000   0.12398)

    H #2 1 DISTANCE IS   0.95763

    FOR ATOM H #2 (COORDINATES:   0.00000  -1.43097  -0.98380)

    H #2 3 DISTANCE IS   1.51447

GROUP MULTIPLICATION TABLE:

    1 2 3 4
    2 1 4 3
    3 4 1 2
    4 3 2 1

GAUSSIAN BASIS INFORMATION:

ATOM                EXPONENT       COEFFICIENTS

O #1  1  S   
                  1 14977011.000000   0.0300960  -0.0249591   0.0000000   0.0000000   0.0000000   0.0000000   0.0000000   0.0000000   0.0000000   0.0000000
                  2 2218105.600000   0.0590766  -0.0506484   0.0000000   0.0000000   0.0000000   0.0000000   0.0000000   0.0000000   0.0000000   0.0000000
                  3  497972.050000   0.1044107  -0.0884251   0.0000000   0.0000000   0.0000000   0.0000000   0.0000000   0.0000000   0.0000000   0.0000000
                  4  136123.290000   0.1777722  -0.1506134   0.0000000   0.0000000   0.0000000   0.0000000   0.0000000   0.0000000   0.0000000   0.0000000
                  5   42655.717000   0.2846299  -0.2409379   0.0000000   0.0000000   0.0000000   0.0000000   0.0000000   0.0000000   0.0000000   0.0000000
                  6   15004.689000   0.4348202  -0.3683111   0.0000000   0.0000000   0.0000000   0.0000000   0.0000000   0.0000000   0.0000000   0.0000000
                  7    5776.150000   0.6441215  -0.5458397   0.0000000   0.0000000   0.0000000   0.0000000   0.0000000   0.0000000   0.0000000   0.0000000
                  8    2375.754100   0.9430160  -0.8004894   0.0000000   0.0000000   0.0000000   0.0000000   0.0000000   0.0000000   0.0000000   0.0000000
                  9    1017.442500   1.3753343  -1.1709533   0.0000000   0.0000000   0.0000000   0.0000000   0.0000000   0.0000000   0.0000000   0.0000000
                 10     448.248580   1.9607856  -1.6820858   0.0000000   0.0000000   0.0000000   0.0000000   0.0000000   0.0000000   0.0000000   0.0000000
                 11     203.162260   2.6756612  -2.3301103   0.0000000   0.0000000   0.0000000   0.0000000   0.0000000   0.0000000   0.0000000   0.0000000
                 12      94.808709   3.4118182  -3.0662577   0.0000000   0.0000000   0.0000000   0.0000000   0.0000000   0.0000000   0.0000000   0.0000000
                 13      45.455366   3.9030763  -3.7240509   0.0000000   0.0000000   0.0000000   0.0000000   0.0000000   0.0000000   0.0000000   0.0000000
                 14      22.321924   3.7481113  -4.0307885   0.0000000   0.0000000   0.0000000   0.0000000   0.0000000   0.0000000   0.0000000   0.0000000
                 15      11.199024   0.0000000   0.0000000   4.3631006   0.0000000   0.0000000   0.0000000   0.0000000   0.0000000   0.0000000   0.0000000
                 16       5.702361   0.0000000   0.0000000   0.0000000   2.6299720   0.0000000   0.0000000   0.0000000   0.0000000   0.0000000   0.0000000
                 17       2.885565   0.0000000   0.0000000   0.0000000   0.0000000   1.5779137   0.0000000   0.0000000   0.0000000   0.0000000   0.0000000
                 18       1.457048   0.0000000   0.0000000   0.0000000   0.0000000   0.0000000   0.9451821   0.0000000   0.0000000   0.0000000   0.0000000
                 19       0.724892   0.0000000   0.0000000   0.0000000   0.0000000   0.0000000   0.0000000   0.5599059   0.0000000   0.0000000   0.0000000
                 20       0.361727   0.0000000   0.0000000   0.0000000   0.0000000   0.0000000   0.0000000   0.0000000   0.3324266   0.0000000   0.0000000
                 21       0.182450   0.0000000   0.0000000   0.0000000   0.0000000   0.0000000   0.0000000   0.0000000   0.0000000   0.1989610   0.0000000
                 22       0.090164   0.0000000   0.0000000   0.0000000   0.0000000   0.0000000   0.0000000   0.0000000   0.0000000   0.0000000   0.1172695

O #1  1  X   
                 23    8007.654800   2.8519721   0.0000000   0.0000000   0.0000000   0.0000000   0.0000000   0.0000000   0.0000000   0.0000000
                 24    2020.742600   4.0183860   0.0000000   0.0000000   0.0000000   0.0000000   0.0000000   0.0000000   0.0000000   0.0000000
                 25     691.584960   5.7455223   0.0000000   0.0000000   0.0000000   0.0000000   0.0000000   0.0000000   0.0000000   0.0000000
                 26     266.033950   8.4843440   0.0000000   0.0000000   0.0000000   0.0000000   0.0000000   0.0000000   0.0000000   0.0000000
                 27     109.630210  11.6855388   0.0000000   0.0000000   0.0000000   0.0000000   0.0000000   0.0000000   0.0000000   0.0000000
                 28      48.279729  15.0620670   0.0000000   0.0000000   0.0000000   0.0000000   0.0000000   0.0000000   0.0000000   0.0000000
                 29      22.158244  17.8417458   0.0000000   0.0000000   0.0000000   0.0000000   0.0000000   0.0000000   0.0000000   0.0000000
                 30      10.507453  19.0534678   0.0000000   0.0000000   0.0000000   0.0000000   0.0000000   0.0000000   0.0000000   0.0000000
                 31       5.152487   0.0000000  11.0652497   0.0000000   0.0000000   0.0000000   0.0000000   0.0000000   0.0000000   0.0000000
                 32       2.602613   0.0000000   0.0000000   4.7119653   0.0000000   0.0000000   0.0000000   0.0000000   0.0000000   0.0000000
                 33       1.335776   0.0000000   0.0000000   0.0000000   2.0469495   0.0000000   0.0000000   0.0000000   0.0000000   0.0000000
                 34       0.689041   0.0000000   0.0000000   0.0000000   0.0000000   0.8948421   0.0000000   0.0000000   0.0000000   0.0000000
                 35       0.355859   0.0000000   0.0000000   0.0000000   0.0000000   0.0000000   0.3917757   0.0000000   0.0000000   0.0000000
                 36       0.183315   0.0000000   0.0000000   0.0000000   0.0000000   0.0000000   0.0000000   0.1709770   0.0000000   0.0000000
                 37       0.093120   0.0000000   0.0000000   0.0000000   0.0000000   0.0000000   0.0000000   0.0000000   0.0733236   0.0000000
                 38       0.044035   0.0000000   0.0000000   0.0000000   0.0000000   0.0000000   0.0000000   0.0000000   0.0000000   0.0287533

O #1  1  Y   
                 39    8007.654800   2.8519721   0.0000000   0.0000000   0.0000000   0.0000000   0.0000000   0.0000000   0.0000000   0.0000000
                 40    2020.742600   4.0183860   0.0000000   0.0000000   0.0000000   0.0000000   0.0000000   0.0000000   0.0000000   0.0000000
                 41     691.584960   5.7455223   0.0000000   0.0000000   0.0000000   0.0000000   0.0000000   0.0000000   0.0000000   0.0000000
                 42     266.033950   8.4843440   0.0000000   0.0000000   0.0000000   0.0000000   0.0000000   0.0000000   0.0000000   0.0000000
                 43     109.630210  11.6855388   0.0000000   0.0000000   0.0000000   0.0000000   0.0000000   0.0000000   0.0000000   0.0000000
                 44      48.279729  15.0620670   0.0000000   0.0000000   0.0000000   0.0000000   0.0000000   0.0000000   0.0000000   0.0000000
                 45      22.158244  17.8417458   0.0000000   0.0000000   0.0000000   0.0000000   0.0000000   0.0000000   0.0000000   0.0000000
                 46      10.507453  19.0534678   0.0000000   0.0000000   0.0000000   0.0000000   0.0000000   0.0000000   0.0000000   0.0000000
                 47       5.152487   0.0000000  11.0652497   0.0000000   0.0000000   0.0000000   0.0000000   0.0000000   0.0000000   0.0000000
                 48       2.602613   0.0000000   0.0000000   4.7119653   0.0000000   0.0000000   0.0000000   0.0000000   0.0000000   0.0000000
                 49       1.335776   0.0000000   0.0000000   0.0000000   2.0469495   0.0000000   0.0000000   0.0000000   0.0000000   0.0000000
                 50       0.689041   0.0000000   0.0000000   0.0000000   0.0000000   0.8948421   0.0000000   0.0000000   0.0000000   0.0000000
                 51       0.355859   0.0000000   0.0000000   0.0000000   0.0000000   0.0000000   0.3917757   0.0000000   0.0000000   0.0000000
                 52       0.183315   0.0000000   0.0000000   0.0000000   0.0000000   0.0000000   0.0000000   0.1709770   0.0000000   0.0000000
                 53       0.093120   0.0000000   0.0000000   0.0000000   0.0000000   0.0000000   0.0000000   0.0000000   0.0733236   0.0000000
                 54       0.044035   0.0000000   0.0000000   0.0000000   0.0000000   0.0000000   0.0000000   0.0000000   0.0000000   0.0287533

O #1  1  Z   
                 55    8007.654800   2.8519721   0.0000000   0.0000000   0.0000000   0.0000000   0.0000000   0.0000000   0.0000000   0.0000000
                 56    2020.742600   4.0183860   0.0000000   0.0000000   0.0000000   0.0000000   0.0000000   0.0000000   0.0000000   0.0000000
                 57     691.584960   5.7455223   0.0000000   0.0000000   0.0000000   0.0000000   0.0000000   0.0000000   0.0000000   0.0000000
                 58     266.033950   8.4843440   0.0000000   0.0000000   0.0000000   0.0000000   0.0000000   0.0000000   0.0000000   0.0000000
                 59     109.630210  11.6855388   0.0000000   0.0000000   0.0000000   0.0000000   0.0000000   0.0000000   0.0000000   0.0000000
                 60      48.279729  15.0620670   0.0000000   0.0000000   0.0000000   0.0000000   0.0000000   0.0000000   0.0000000   0.0000000
                 61      22.158244  17.8417458   0.0000000   0.0000000   0.0000000   0.0000000   0.0000000   0.0000000   0.0000000   0.0000000
                 62      10.507453  19.0534678   0.0000000   0.0000000   0.0000000   0.0000000   0.0000000   0.0000000   0.0000000   0.0000000
                 63       5.152487   0.0000000  11.0652497   0.0000000   0.0000000   0.0000000   0.0000000   0.0000000   0.0000000   0.0000000
                 64       2.602613   0.0000000   0.0000000   4.7119653   0.0000000   0.0000000   0.0000000   0.0000000   0.0000000   0.0000000
                 65       1.335776   0.0000000   0.0000000   0.0000000   2.0469495   0.0000000   0.0000000   0.0000000   0.0000000   0.0000000
                 66       0.689041   0.0000000   0.0000000   0.0000000   0.0000000   0.8948421   0.0000000   0.0000000   0.0000000   0.0000000
                 67       0.355859   0.0000000   0.0000000   0.0000000   0.0000000   0.0000000   0.3917757   0.0000000   0.0000000   0.0000000
                 68       0.183315   0.0000000   0.0000000   0.0000000   0.0000000   0.0000000   0.0000000   0.1709770   0.0000000   0.0000000
                 69       0.093120   0.0000000   0.0000000   0.0000000   0.0000000   0.0000000   0.0000000   0.0000000   0.0733236   0.0000000
                 70       0.044035   0.0000000   0.0000000   0.0000000   0.0000000   0.0000000   0.0000000   0.0000000   0.0000000   0.0287533

O #1  1  XX  
                 71      22.996854 688.4776282   0.0000000   0.0000000   0.0000000   0.0000000   0.0000000   0.0000000   0.0000000
                 72      11.926728   0.0000000 218.2138866   0.0000000   0.0000000   0.0000000   0.0000000   0.0000000   0.0000000
                 73       6.185492   0.0000000   0.0000000  69.1631809   0.0000000   0.0000000   0.0000000   0.0000000   0.0000000
                 74       3.207946   0.0000000   0.0000000   0.0000000  21.9213622   0.0000000   0.0000000   0.0000000   0.0000000
                 75       1.663719   0.0000000   0.0000000   0.0000000   0.0000000   6.9480044   0.0000000   0.0000000   0.0000000
                 76       0.862845   0.0000000   0.0000000   0.0000000   0.0000000   0.0000000   2.2021791   0.0000000   0.0000000
                 77       0.447493   0.0000000   0.0000000   0.0000000   0.0000000   0.0000000   0.0000000   0.6979835   0.0000000
                 78       0.232080   0.0000000   0.0000000   0.0000000   0.0000000   0.0000000   0.0000000   0.0000000   0.2212268

O #1  1  XY  
                 79      22.996854 688.4776282   0.0000000   0.0000000   0.0000000   0.0000000   0.0000000   0.0000000   0.0000000
                 80      11.926728   0.0000000 218.2138866   0.0000000   0.0000000   0.0000000   0.0000000   0.0000000   0.0000000
                 81       6.185492   0.0000000   0.0000000  69.1631809   0.0000000   0.0000000   0.0000000   0.0000000   0.0000000
                 82       3.207946   0.0000000   0.0000000   0.0000000  21.9213622   0.0000000   0.0000000   0.0000000   0.0000000
                 83       1.663719   0.0000000   0.0000000   0.0000000   0.0000000   6.9480044   0.0000000   0.0000000   0.0000000
                 84       0.862845   0.0000000   0.0000000   0.0000000   0.0000000   0.0000000   2.2021791   0.0000000   0.0000000
                 85       0.447493   0.0000000   0.0000000   0.0000000   0.0000000   0.0000000   0.0000000   0.6979835   0.0000000
                 86       0.232080   0.0000000   0.0000000   0.0000000   0.0000000   0.0000000   0.0000000   0.0000000   0.2212268

O #1  1  XZ  
                 87      22.996854 688.4776282   0.0000000   0.0000000   0.0000000   0.0000000   0.0000000   0.0000000   0.0000000
                 88      11.926728   0.0000000 218.2138866   0.0000000   0.0000000   0.0000000   0.0000000   0.0000000   0.0000000
                 89       6.185492   0.0000000   0.0000000  69.1631809   0.0000000   0.0000000   0.0000000   0.0000000   0.0000000
                 90       3.207946   0.0000000   0.0000000   0.0000000  21.9213622   0.0000000   0.0000000   0.0000000   0.0000000
                 91       1.663719   0.0000000   0.0000000   0.0000000   0.0000000   6.9480044   0.0000000   0.0000000   0.0000000
                 92       0.862845   0.0000000   0.0000000   0.0000000   0.0000000   0.0000000   2.2021791   0.0000000   0.0000000
                 93       0.447493   0.0000000   0.0000000   0.0000000   0.0000000   0.0000000   0.0000000   0.6979835   0.0000000
                 94       0.232080   0.0000000   0.0000000   0.0000000   0.0000000   0.0000000   0.0000000   0.0000000   0.2212268

O #1  1  YY  
                 95      22.996854 688.4776282   0.0000000   0.0000000   0.0000000   0.0000000   0.0000000   0.0000000   0.0000000
                 96      11.926728   0.0000000 218.2138866   0.0000000   0.0000000   0.0000000   0.0000000   0.0000000   0.0000000
                 97       6.185492   0.0000000   0.0000000  69.1631809   0.0000000   0.0000000   0.0000000   0.0000000   0.0000000
                 98       3.207946   0.0000000   0.0000000   0.0000000  21.9213622   0.0000000   0.0000000   0.0000000   0.0000000
                 99       1.663719   0.0000000   0.0000000   0.0000000   0.0000000   6.9480044   0.0000000   0.0000000   0.0000000
                100       0.862845   0.0000000   0.0000000   0.0000000   0.0000000   0.0000000   2.2021791   0.0000000   0.0000000
                101       0.447493   0.0000000   0.0000000   0.0000000   0.0000000   0.0000000   0.0000000   0.6979835   0.0000000
                102       0.232080   0.0000000   0.0000000   0.0000000   0.0000000   0.0000000   0.0000000   0.0000000   0.2212268

O #1  1  YZ  
                103      22.996854 688.4776282   0.0000000   0.0000000   0.0000000   0.0000000   0.0000000   0.0000000   0.0000000
                104      11.926728   0.0000000 218.2138866   0.0000000   0.0000000   0.0000000   0.0000000   0.0000000   0.0000000
                105       6.185492   0.0000000   0.0000000  69.1631809   0.0000000   0.0000000   0.0000000   0.0000000   0.0000000
                106       3.207946   0.0000000   0.0000000   0.0000000  21.9213622   0.0000000   0.0000000   0.0000000   0.0000000
                107       1.663719   0.0000000   0.0000000   0.0000000   0.0000000   6.9480044   0.0000000   0.0000000   0.0000000
                108       0.862845   0.0000000   0.0000000   0.0000000   0.0000000   0.0000000   2.2021791   0.0000000   0.0000000
                109       0.447493   0.0000000   0.0000000   0.0000000   0.0000000   0.0000000   0.0000000   0.6979835   0.0000000
                110       0.232080   0.0000000   0.0000000   0.0000000   0.0000000   0.0000000   0.0000000   0.0000000   0.2212268

O #1  1  ZZ  
                111      22.996854 688.4776282   0.0000000   0.0000000   0.0000000   0.0000000   0.0000000   0.0000000   0.0000000
                112      11.926728   0.0000000 218.2138866   0.0000000   0.0000000   0.0000000   0.0000000   0.0000000   0.0000000
                113       6.185492   0.0000000   0.0000000  69.1631809   0.0000000   0.0000000   0.0000000   0.0000000   0.0000000
                114       3.207946   0.0000000   0.0000000   0.0000000  21.9213622   0.0000000   0.0000000   0.0000000   0.0000000
                115       1.663719   0.0000000   0.0000000   0.0000000   0.0000000   6.9480044   0.0000000   0.0000000   0.0000000
                116       0.862845   0.0000000   0.0000000   0.0000000   0.0000000   0.0000000   2.2021791   0.0000000   0.0000000
                117       0.447493   0.0000000   0.0000000   0.0000000   0.0000000   0.0000000   0.0000000   0.6979835   0.0000000
                118       0.232080   0.0000000   0.0000000   0.0000000   0.0000000   0.0000000   0.0000000   0.0000000   0.2212268

O #1  1  F300
                119      12.099621 1556.8133781   0.0000000   0.0000000   0.0000000   0.0000000   0.0000000   0.0000000
                120       6.660422   0.0000000 406.3301681   0.0000000   0.0000000   0.0000000   0.0000000   0.0000000
                121       3.666332   0.0000000   0.0000000 106.0526631   0.0000000   0.0000000   0.0000000   0.0000000
                122       2.018189   0.0000000   0.0000000   0.0000000  27.6798710   0.0000000   0.0000000   0.0000000
                123       1.110943   0.0000000   0.0000000   0.0000000   0.0000000   7.2244797   0.0000000   0.0000000
                124       0.611536   0.0000000   0.0000000   0.0000000   0.0000000   0.0000000   1.8855975   0.0000000
                125       0.336629   0.0000000   0.0000000   0.0000000   0.0000000   0.0000000   0.0000000   0.4921433

O #1  1  F210
                126      12.099621 1556.8133781   0.0000000   0.0000000   0.0000000   0.0000000   0.0000000   0.0000000
                127       6.660422   0.0000000 406.3301681   0.0000000   0.0000000   0.0000000   0.0000000   0.0000000
                128       3.666332   0.0000000   0.0000000 106.0526631   0.0000000   0.0000000   0.0000000   0.0000000
                129       2.018189   0.0000000   0.0000000   0.0000000  27.6798710   0.0000000   0.0000000   0.0000000
                130       1.110943   0.0000000   0.0000000   0.0000000   0.0000000   7.2244797   0.0000000   0.0000000
                131       0.611536   0.0000000   0.0000000   0.0000000   0.0000000   0.0000000   1.8855975   0.0000000
                132       0.336629   0.0000000   0.0000000   0.0000000   0.0000000   0.0000000   0.0000000   0.4921433

O #1  1  F201
                133      12.099621 1556.8133781   0.0000000   0.0000000   0.0000000   0.0000000   0.0000000   0.0000000
                134       6.660422   0.0000000 406.3301681   0.0000000   0.0000000   0.0000000   0.0000000   0.0000000
                135       3.666332   0.0000000   0.0000000 106.0526631   0.0000000   0.0000000   0.0000000   0.0000000
                136       2.018189   0.0000000   0.0000000   0.0000000  27.6798710   0.0000000   0.0000000   0.0000000
                137       1.110943   0.0000000   0.0000000   0.0000000   0.0000000   7.2244797   0.0000000   0.0000000
                138       0.611536   0.0000000   0.0000000   0.0000000   0.0000000   0.0000000   1.8855975   0.0000000
                139       0.336629   0.0000000   0.0000000   0.0000000   0.0000000   0.0000000   0.0000000   0.4921433

O #1  1  F120
                140      12.099621 1556.8133781   0.0000000   0.0000000   0.0000000   0.0000000   0.0000000   0.0000000
                141       6.660422   0.0000000 406.3301681   0.0000000   0.0000000   0.0000000   0.0000000   0.0000000
                142       3.666332   0.0000000   0.0000000 106.0526631   0.0000000   0.0000000   0.0000000   0.0000000
                143       2.018189   0.0000000   0.0000000   0.0000000  27.6798710   0.0000000   0.0000000   0.0000000
                144       1.110943   0.0000000   0.0000000   0.0000000   0.0000000   7.2244797   0.0000000   0.0000000
                145       0.611536   0.0000000   0.0000000   0.0000000   0.0000000   0.0000000   1.8855975   0.0000000
                146       0.336629   0.0000000   0.0000000   0.0000000   0.0000000   0.0000000   0.0000000   0.4921433

O #1  1  F111
                147      12.099621 1556.8133781   0.0000000   0.0000000   0.0000000   0.0000000   0.0000000   0.0000000
                148       6.660422   0.0000000 406.3301681   0.0000000   0.0000000   0.0000000   0.0000000   0.0000000
                149       3.666332   0.0000000   0.0000000 106.0526631   0.0000000   0.0000000   0.0000000   0.0000000
                150       2.018189   0.0000000   0.0000000   0.0000000  27.6798710   0.0000000   0.0000000   0.0000000
                151       1.110943   0.0000000   0.0000000   0.0000000   0.0000000   7.2244797   0.0000000   0.0000000
                152       0.611536   0.0000000   0.0000000   0.0000000   0.0000000   0.0000000   1.8855975   0.0000000
                153       0.336629   0.0000000   0.0000000   0.0000000   0.0000000   0.0000000   0.0000000   0.4921433

O #1  1  F102
                154      12.099621 1556.8133781   0.0000000   0.0000000   0.0000000   0.0000000   0.0000000   0.0000000
                155       6.660422   0.0000000 406.3301681   0.0000000   0.0000000   0.0000000   0.0000000   0.0000000
                156       3.666332   0.0000000   0.0000000 106.0526631   0.0000000   0.0000000   0.0000000   0.0000000
                157       2.018189   0.0000000   0.0000000   0.0000000  27.6798710   0.0000000   0.0000000   0.0000000
                158       1.110943   0.0000000   0.0000000   0.0000000   0.0000000   7.2244797   0.0000000   0.0000000
                159       0.611536   0.0000000   0.0000000   0.0000000   0.0000000   0.0000000   1.8855975   0.0000000
                160       0.336629   0.0000000   0.0000000   0.0000000   0.0000000   0.0000000   0.0000000   0.4921433

O #1  1  F030
                161      12.099621 1556.8133781   0.0000000   0.0000000   0.0000000   0.0000000   0.0000000   0.0000000
                162       6.660422   0.0000000 406.3301681   0.0000000   0.0000000   0.0000000   0.0000000   0.0000000
                163       3.666332   0.0000000   0.0000000 106.0526631   0.0000000   0.0000000   0.0000000   0.0000000
                164       2.018189   0.0000000   0.0000000   0.0000000  27.6798710   0.0000000   0.0000000   0.0000000
                165       1.110943   0.0000000   0.0000000   0.0000000   0.0000000   7.2244797   0.0000000   0.0000000
                166       0.611536   0.0000000   0.0000000   0.0000000   0.0000000   0.0000000   1.8855975   0.0000000
                167       0.336629   0.0000000   0.0000000   0.0000000   0.0000000   0.0000000   0.0000000   0.4921433

O #1  1  F021
                168      12.099621 1556.8133781   0.0000000   0.0000000   0.0000000   0.0000000   0.0000000   0.0000000
                169       6.660422   0.0000000 406.3301681   0.0000000   0.0000000   0.0000000   0.0000000   0.0000000
                170       3.666332   0.0000000   0.0000000 106.0526631   0.0000000   0.0000000   0.0000000   0.0000000
                171       2.018189   0.0000000   0.0000000   0.0000000  27.6798710   0.0000000   0.0000000   0.0000000
                172       1.110943   0.0000000   0.0000000   0.0000000   0.0000000   7.2244797   0.0000000   0.0000000
                173       0.611536   0.0000000   0.0000000   0.0000000   0.0000000   0.0000000   1.8855975   0.0000000
                174       0.336629   0.0000000   0.0000000   0.0000000   0.0000000   0.0000000   0.0000000   0.4921433

O #1  1  F012
                175      12.099621 1556.8133781   0.0000000   0.0000000   0.0000000   0.0000000   0.0000000   0.0000000
                176       6.660422   0.0000000 406.3301681   0.0000000   0.0000000   0.0000000   0.0000000   0.0000000
                177       3.666332   0.0000000   0.0000000 106.0526631   0.0000000   0.0000000   0.0000000   0.0000000
                178       2.018189   0.0000000   0.0000000   0.0000000  27.6798710   0.0000000   0.0000000   0.0000000
                179       1.110943   0.0000000   0.0000000   0.0000000   0.0000000   7.2244797   0.0000000   0.0000000
                180       0.611536   0.0000000   0.0000000   0.0000000   0.0000000   0.0000000   1.8855975   0.0000000
                181       0.336629   0.0000000   0.0000000   0.0000000   0.0000000   0.0000000   0.0000000   0.4921433

O #1  1  F003
                182      12.099621 1556.8133781   0.0000000   0.0000000   0.0000000   0.0000000   0.0000000   0.0000000
                183       6.660422   0.0000000 406.3301681   0.0000000   0.0000000   0.0000000   0.0000000   0.0000000
                184       3.666332   0.0000000   0.0000000 106.0526631   0.0000000   0.0000000   0.0000000   0.0000000
                185       2.018189   0.0000000   0.0000000   0.0000000  27.6798710   0.0000000   0.0000000   0.0000000
                186       1.110943   0.0000000   0.0000000   0.0000000   0.0000000   7.2244797   0.0000000   0.0000000
                187       0.611536   0.0000000   0.0000000   0.0000000   0.0000000   0.0000000   1.8855975   0.0000000
                188       0.336629   0.0000000   0.0000000   0.0000000   0.0000000   0.0000000   0.0000000   0.4921433

O #1  1  G400
                189      13.130089 13560.2022502   0.0000000   0.0000000   0.0000000   0.0000000   0.0000000
                190       7.103479   0.0000000 2503.6614499   0.0000000   0.0000000   0.0000000   0.0000000
                191       3.843037   0.0000000   0.0000000 462.2586073   0.0000000   0.0000000   0.0000000
[...]
 1591  204 H #2 H320
 1592  205 H #2 H311
 1593  206 H #2 H311
 1594  207 H #2 H311
 1595  208 H #2 H311
 1596  209 H #2 H302
 1597  210 H #2 H302
 1598  211 H #2 H302
 1599  212 H #2 H302
 1600  213 H #2 H140
 1601  214 H #2 H140
 1602  215 H #2 H140
 1603  216 H #2 H140
 1604  217 H #2 H131
 1605  218 H #2 H131
 1606  219 H #2 H131
 1607  220 H #2 H131
 1608  221 H #2 H122
 1609  222 H #2 H122
 1610  223 H #2 H122
 1611  224 H #2 H122
 1612  225 H #2 H113
 1613  226 H #2 H113
 1614  227 H #2 H113
 1615  228 H #2 H113
 1616  229 H #2 H104
 1617  230 H #2 H104
 1618  231 H #2 H104
 1619  232 H #2 H104
 1620  233 H #2 I510
 1621  234 H #2 I510
 1622  235 H #2 I510
 1623  236 H #2 I501
 1624  237 H #2 I501
 1625  238 H #2 I501
 1626  239 H #2 I330
 1627  240 H #2 I330
 1628  241 H #2 I330
 1629  242 H #2 I321
 1630  243 H #2 I321
 1631  244 H #2 I321
 1632  245 H #2 I312
 1633  246 H #2 I312
 1634  247 H #2 I312
 1635  248 H #2 I303
 1636  249 H #2 I303
 1637  250 H #2 I303
 1638  251 H #2 I150
 1639  252 H #2 I150
 1640  253 H #2 I150
 1641  254 H #2 I141
 1642  255 H #2 I141
 1643  256 H #2 I141
 1644  257 H #2 I132
 1645  258 H #2 I132
 1646  259 H #2 I132
 1647  260 H #2 I123
 1648  261 H #2 I123
 1649  262 H #2 I123
 1650  263 H #2 I114
 1651  264 H #2 I114
 1652  265 H #2 I114
 1653  266 H #2 I105
 1654  267 H #2 I105
 1655  268 H #2 I105
 1656  269 H #2 K700
 1657  270 H #2 K700
 1658  271 H #2 K520
 1659  272 H #2 K520
 1660  273 H #2 K511
 1661  274 H #2 K511
 1662  275 H #2 K502
 1663  276 H #2 K502
 1664  277 H #2 K340
 1665  278 H #2 K340
 1666  279 H #2 K331
 1667  280 H #2 K331
 1668  281 H #2 K322
 1669  282 H #2 K322
 1670  283 H #2 K313
 1671  284 H #2 K313
 1672  285 H #2 K304
 1673  286 H #2 K304
 1674  287 H #2 K160
 1675  288 H #2 K160
 1676  289 H #2 K151
 1677  290 H #2 K151
 1678  291 H #2 K142
 1679  292 H #2 K142
 1680  293 H #2 K133
 1681  294 H #2 K133
 1682  295 H #2 K124
 1683  296 H #2 K124
 1684  297 H #2 K115
 1685  298 H #2 K115
 1686  299 H #2 K106
 1687  300 H #2 K106
 1688  301 H #2 L710
 1689  302 H #2 L701
 1690  303 H #2 L530
 1691  304 H #2 L521
 1692  305 H #2 L512
 1693  306 H #2 L503
 1694  307 H #2 L350
 1695  308 H #2 L341
 1696  309 H #2 L332
 1697  310 H #2 L323
 1698  311 H #2 L314
 1699  312 H #2 L305
 1700  313 H #2 M900
 1701  314 H #2 M810
 1702  315 H #2 M801
 1703  316 H #2 M720
 1704  317 H #2 M711
 1705  318 H #2 M702
 1706  319 H #2 M630
 1707  320 H #2 M621

NUCLEAR REPULSION ENERGY:    9.1908990288 A.U.

One-electron integrals took 5.357204 seconds

  @TWOEL-I, 1765498560 INTEGRALS OF SYMMETRY TYPE  I I I I
  @TWOEL-I, 9214384978 INTEGRALS OF SYMMETRY TYPE  I J I J
  @TWOEL-I, 4643915454 INTEGRALS OF SYMMETRY TYPE  I I J J
  @TWOEL-I, 8574798632 INTEGRALS OF SYMMETRY TYPE  I J K L
  @TWOEL-I, TOTAL NUMBER OF 2-E INTEGRALS 24198597624

Two-electron integrals took 1399.297988 seconds

Nuclear repulsion energy: 9.190899028787
--executable xvmol finished with status     0 in     1436.11 seconds (walltime).
 --invoking executable--
/project1/nike/cfour_v2.00beta_withApril2019xnmol/bin/xvmol2ja
--executable xvmol2ja finished with status     0 in        0.32 seconds (walltime).
 --invoking executable--
/project1/nike/cfour_v2.00beta_withApril2019xnmol/bin/xvscf
  There are  957 functions in the AO basis.

  There are 4 irreducible representations.

       Irrep        # of functions
         1                291
         2                215
         3                261
         4                190


  Parameters for SCF calculation: 
        SCF reference function:  RHF  
  Maximum number of iterations: 9999
     Full symmetry point group: C2v 
     Computational point group: C2v 
        Initial density matrix: MOREAD                 
     SCF convergence tolerance: 10**(- 7)
  DIIS convergence acceleration:  ON
          Latest start for DIIS:   5
                     DIIS order:   6

  Memory information:   90283166 words required.
  Fock matrices are constructed from AO integral file.
 @GETMEM-I,  Allocated     688 MB of main memory.
  Initialization and symmetry analysis required      0.003 seconds.

  @INITGES-I, Occupancies from core Hamiltonian:

          Alpha population by irrep:   3    1    1    0
           Beta population by irrep:   3    1    1    0


 total no. of electrons in initial guess :  0.000000000000000E+000
  --------------------------------------------------------------------
  Iteration         Total Energy            Largest Density Difference
  --------------------------------------------------------------------
       0             9.190899028787092              0.0000000000D+00
   current occupation vector 
     3  1  1  0
     3  1  1  0
  processed             1765498560  ao basis integrals from 
               2942498  buffers.
  processed             4643915454  ao basis integrals from 
               7739860  buffers.
  processed             9214384978  ao basis integrals from 
              15357309  buffers.
       1           -59.797690149088432              0.1200183982D+01
   current occupation vector 
     3  1  1  0
     3  1  1  0
  processed             1765498560  ao basis integrals from 
               2942498  buffers.
  processed             4643915454  ao basis integrals from 
               7739860  buffers.
  processed             9214384978  ao basis integrals from 
              15357309  buffers.
       2           -62.911295881094894              0.3129963576D+03
   current occupation vector 
     3  0  2  0
     3  0  2  0
  processed             1765498560  ao basis integrals from 
               2942498  buffers.
  processed             4643915454  ao basis integrals from 
               7739860  buffers.
  processed             9214384978  ao basis integrals from 
              15357309  buffers.
       3           -70.809318720265694              0.3130041911D+03
   current occupation vector 
     3  1  1  0
     3  1  1  0
  processed             1765498560  ao basis integrals from 
               2942498  buffers.
  processed             4643915454  ao basis integrals from 
               7739860  buffers.
  processed             9214384978  ao basis integrals from 
              15357309  buffers.
       4           -67.492602611573361              0.1722008094D+03
   current occupation vector 
     3  0  2  0
     3  0  2  0
 
 sum over diagonal and offdiagdiagonal of C(T)*S*C for irrep
                     1
  1.114575687299890E-008 -2.414431468362797E-008
 reorthoganalization of MOs is carried out
 sum over diagonal and offdiagdiagonal of C(T)*S*C for irrep
                     1
  2.258312425951203E-010 -1.222832481618208E-009
 
 sum over diagonal and offdiagdiagonal of C(T)*S*C for irrep
                     2
  1.412835293201908E-009  2.727030714851820E-009
 reorthoganalization of MOs is carried out
 sum over diagonal and offdiagdiagonal of C(T)*S*C for irrep
                     2
 -2.999267501024860E-011  2.131357944777500E-010
 
 sum over diagonal and offdiagdiagonal of C(T)*S*C for irrep
                     3
 -7.853118821898875E-009 -1.327528382652868E-008
 reorthoganalization of MOs is carried out
 sum over diagonal and offdiagdiagonal of C(T)*S*C for irrep
                     3
  3.567874884424782E-010  2.766036872961874E-010
 
 sum over diagonal and offdiagdiagonal of C(T)*S*C for irrep
                     4
 -1.064393018168630E-010 -5.022191509330488E-009
 reorthoganalization of MOs is carried out
 sum over diagonal and offdiagdiagonal of C(T)*S*C for irrep
                     4
 -1.393862802956392E-011 -1.662183068094701E-010
  processed             1765498560  ao basis integrals from 
               2942498  buffers.
  processed             4643915454  ao basis integrals from 
               7739860  buffers.
  processed             9214384978  ao basis integrals from 
              15357309  buffers.
       5           -72.225842049980386              0.1722027036D+03
   current occupation vector 
     3  1  1  0
     3  1  1  0
  processed             1765498560  ao basis integrals from 
               2942498  buffers.
  processed             4643915454  ao basis integrals from 
               7739860  buffers.
  processed             9214384978  ao basis integrals from 
              15357309  buffers.
       6           -75.539690699531889              0.2243910991D+00
   current occupation vector 
     3  1  1  0
     3  1  1  0
  processed             1765498560  ao basis integrals from 
               2942498  buffers.
  processed             4643915454  ao basis integrals from 
               7739860  buffers.
  processed             9214384978  ao basis integrals from 
              15357309  buffers.
       7           -76.049442294837718              0.8662355659D-01
   current occupation vector 
     3  1  1  0
     3  1  1  0
  processed             1765498560  ao basis integrals from 
               2942498  buffers.
  processed             4643915454  ao basis integrals from 
               7739860  buffers.
  processed             9214384978  ao basis integrals from 
              15357309  buffers.
       8           -76.066800241829426              0.4374931085D-01
   current occupation vector 
     3  1  1  0
     3  1  1  0
  processed             1765498560  ao basis integrals from 
               2942498  buffers.
  processed             4643915454  ao basis integrals from 
               7739860  buffers.
  processed             9214384978  ao basis integrals from 
              15357309  buffers.
       9           -76.067390569899885              0.8292151269D-02
   current occupation vector 
     3  1  1  0
     3  1  1  0
 
 sum over diagonal and offdiagdiagonal of C(T)*S*C for irrep
                     1
  1.147733474926582E-008 -9.712398099524500E-008
 reorthoganalization of MOs is carried out
 sum over diagonal and offdiagdiagonal of C(T)*S*C for irrep
                     1
  1.146317485378745E-010  6.230367455153103E-009
 
 sum over diagonal and offdiagdiagonal of C(T)*S*C for irrep
                     2
  1.376311509204697E-009  6.586335505290604E-009
 reorthoganalization of MOs is carried out
 sum over diagonal and offdiagdiagonal of C(T)*S*C for irrep
                     2
 -6.372680161348399E-013 -1.224847993824161E-010
 
 sum over diagonal and offdiagdiagonal of C(T)*S*C for irrep
                     3
 -7.741600693833561E-009  3.203636184388375E-010
 reorthoganalization of MOs is carried out
 sum over diagonal and offdiagdiagonal of C(T)*S*C for irrep
                     3
  1.058302334655536E-010 -2.050158553906389E-009
 
 sum over diagonal and offdiagdiagonal of C(T)*S*C for irrep
                     4
 -1.113444891842619E-010 -4.890617086473725E-009
 reorthoganalization of MOs is carried out
 sum over diagonal and offdiagdiagonal of C(T)*S*C for irrep
                     4
 -3.329558850850844E-012 -1.788835553702480E-010
  processed             1765498560  ao basis integrals from 
               2942498  buffers.
  processed             4643915454  ao basis integrals from 
               7739860  buffers.
  processed             9214384978  ao basis integrals from 
              15357309  buffers.
      10           -76.067450176102682              0.2760439738D-02
   current occupation vector 
     3  1  1  0
     3  1  1  0
  processed             1765498560  ao basis integrals from 
               2942498  buffers.
  processed             4643915454  ao basis integrals from 
               7739860  buffers.
  processed             9214384978  ao basis integrals from 
              15357309  buffers.
      11           -76.067455120479764              0.5131073910D-03
   current occupation vector 
     3  1  1  0
     3  1  1  0
  processed             1765498560  ao basis integrals from 
               2942498  buffers.
  processed             4643915454  ao basis integrals from 
               7739860  buffers.
  processed             9214384978  ao basis integrals from 
              15357309  buffers.
      12           -76.067455154463630              0.1018946024D-03
   current occupation vector 
     3  1  1  0
     3  1  1  0
  processed             1765498560  ao basis integrals from 
               2942498  buffers.
  processed             4643915454  ao basis integrals from 
               7739860  buffers.
  processed             9214384978  ao basis integrals from 
              15357309  buffers.
      13           -76.067455156012230              0.4161162411D-04
   current occupation vector 
     3  1  1  0
     3  1  1  0
  processed             1765498560  ao basis integrals from 
               2942498  buffers.
  processed             4643915454  ao basis integrals from 
               7739860  buffers.
  processed             9214384978  ao basis integrals from 
              15357309  buffers.
      14           -76.067455156189567              0.1047786693D-04
   current occupation vector 
     3  1  1  0
     3  1  1  0
 
 sum over diagonal and offdiagdiagonal of C(T)*S*C for irrep
                     1
  1.119091863621691E-008 -9.531297816636358E-008
 reorthoganalization of MOs is carried out
 sum over diagonal and offdiagdiagonal of C(T)*S*C for irrep
                     1
 -1.063640286957934E-010 -3.106019200533310E-009
 
 sum over diagonal and offdiagdiagonal of C(T)*S*C for irrep
                     2
  1.386376902168251E-009  6.589027228330528E-009
 reorthoganalization of MOs is carried out
 sum over diagonal and offdiagdiagonal of C(T)*S*C for irrep
                     2
 -3.687672389673935E-011 -4.493842414224407E-011
 
 sum over diagonal and offdiagdiagonal of C(T)*S*C for irrep
                     3
 -7.860941120263476E-009  1.666210045457544E-010
 reorthoganalization of MOs is carried out
 sum over diagonal and offdiagdiagonal of C(T)*S*C for irrep
                     3
  1.155269213626298E-010 -1.299628264010615E-010
 
 sum over diagonal and offdiagdiagonal of C(T)*S*C for irrep
                     4
 -1.122277826226536E-010 -5.125725300523842E-009
 reorthoganalization of MOs is carried out
 sum over diagonal and offdiagdiagonal of C(T)*S*C for irrep
                     4
  3.583022767372768E-012  1.052434275342148E-010
  processed             1765498560  ao basis integrals from 
               2942498  buffers.
  processed             4643915454  ao basis integrals from 
               7739860  buffers.
  processed             9214384978  ao basis integrals from 
              15357309  buffers.
      15           -76.067455156193148              0.1679749063D-05
   current occupation vector 
     3  1  1  0
     3  1  1  0
  processed             1765498560  ao basis integrals from 
               2942498  buffers.
  processed             4643915454  ao basis integrals from 
               7739860  buffers.
  processed             9214384978  ao basis integrals from 
              15357309  buffers.
      16           -76.067455156192793              0.3670326778D-06
   current occupation vector 
     3  1  1  0
     3  1  1  0
  processed             1765498560  ao basis integrals from 
               2942498  buffers.
  processed             4643915454  ao basis integrals from 
               7739860  buffers.
  processed             9214384978  ao basis integrals from 
              15357309  buffers.
      17           -76.067455156196715              0.1270141111D-06
   current occupation vector 
     3  1  1  0
     3  1  1  0
  processed             1765498560  ao basis integrals from 
               2942498  buffers.
  processed             4643915454  ao basis integrals from 
               7739860  buffers.
  processed             9214384978  ao basis integrals from 
              15357309  buffers.
      18           -76.067455156191258              0.2664956712D-06
   current occupation vector 
     3  1  1  0
     3  1  1  0
  processed             1765498560  ao basis integrals from 
               2942498  buffers.
  processed             4643915454  ao basis integrals from 
               7739860  buffers.
  processed             9214384978  ao basis integrals from 
              15357309  buffers.
      19           -76.067455156194114              0.3071100774D-06
   current occupation vector 
     3  1  1  0
     3  1  1  0
 
 sum over diagonal and offdiagdiagonal of C(T)*S*C for irrep
                     1
  1.094880774932250E-008 -9.284874963050759E-008
 reorthoganalization of MOs is carried out
 sum over diagonal and offdiagdiagonal of C(T)*S*C for irrep
                     1
 -7.585820860356307E-011 -2.007925411459884E-009
 
 sum over diagonal and offdiagdiagonal of C(T)*S*C for irrep
                     2
  1.363428148160040E-009  6.557059161647181E-009
 reorthoganalization of MOs is carried out
 sum over diagonal and offdiagdiagonal of C(T)*S*C for irrep
                     2
  2.561695300329347E-011  4.128220006131285E-011
 
 sum over diagonal and offdiagdiagonal of C(T)*S*C for irrep
                     3
 -7.757498310390076E-009  2.906767328432177E-009
 reorthoganalization of MOs is carried out
 sum over diagonal and offdiagdiagonal of C(T)*S*C for irrep
                     3
 -4.554456811689533E-011 -1.239192587124364E-009
 
 sum over diagonal and offdiagdiagonal of C(T)*S*C for irrep
                     4
 -1.068626298561526E-010 -4.907401760806941E-009
 reorthoganalization of MOs is carried out
 sum over diagonal and offdiagdiagonal of C(T)*S*C for irrep
                     4
 -1.904698621046919E-012 -2.131182051820807E-011
  processed             1765498560  ao basis integrals from 
               2942498  buffers.
  processed             4643915454  ao basis integrals from 
               7739860  buffers.
  processed             9214384978  ao basis integrals from 
              15357309  buffers.
      20           -76.067455156193589              0.2331457002D-06
   current occupation vector 
     3  1  1  0
     3  1  1  0
  processed             1765498560  ao basis integrals from 
               2942498  buffers.
  processed             4643915454  ao basis integrals from 
               7739860  buffers.
  processed             9214384978  ao basis integrals from 
              15357309  buffers.
      21           -76.067455156194640              0.3606721616D-06
   current occupation vector 
     3  1  1  0
     3  1  1  0
  processed             1765498560  ao basis integrals from 
               2942498  buffers.
  processed             4643915454  ao basis integrals from 
               7739860  buffers.
  processed             9214384978  ao basis integrals from 
              15357309  buffers.
      22           -76.067455156194796              0.1689285973D-06
   current occupation vector 
     3  1  1  0
     3  1  1  0

  SCF has converged.

 Density matrix saved to file den.dat
 total electron number:   10.0000000000006     
  processed             1765498560  ao basis integrals from 
               2942498  buffers.
  processed             4643915454  ao basis integrals from 
               7739860  buffers.
  processed             9214384978  ao basis integrals from 
              15357309  buffers.
     E(SCF)=       -76.067455156192295              0.7762372800D-07

  @LOCATE-F, Label LABBASIS not found on unit  10.
  @CHECKOUT-I, Total execution time (CPU/WALL):     6531.24/    7705.04 seconds.
 
  ERROR ERROR ERROR ERROR ERROR ERROR 
  Job has terminated with error flag 
  ERROR ERROR ERROR ERROR ERROR ERROR 
 
--executable xvscf finished with status   256 in     7705.41 seconds (walltime).
  This computation required                         9142.84 seconds (walltime).
--- SharcNET Job Epilogue ---
Job completed successfully.
               jobid: 1711299
               resid: 3188275
         exit status: 0
      allocated time: 9144.24
           user time: 29397.3
         system time: 4284.58
peak rss=253403070464; peak vsz=253410910208 (bytes)
atime=9144.24; utime=29397.3; stime=4284.58; exit=0
